ITEM: TIMESTEP energy, energy_weight, force_weight, nsims
1        -64440.5790368333036895    1    1   500
ITEM: NUMBER OF ATOMS
32        
ITEM: BOX BOUNDS xy xz yz pp pp pp
   -0.5187925308352458      7.4327707217290993     -0.2593962654176226
   -0.2686129011125673      7.4282441643595654     -0.2593962654176232
    0.0000000000000000      7.4233831323075554     -0.2686129011125673
ITEM: ATOMS id type x y z
1      1          0.0629498068025910     0.0248502606264868     0.0679551338697698
2      1         -0.1844435013964467     1.8246983355889621     1.9032782319390811
3      1          1.8133114413299236     0.0056895072883128     1.7943244953678901
4      1          1.8567014139930522     1.9232056420494592     0.0072110743747236
5      1         -0.1491134292460518    -0.1993450533318989     3.7466482773238137
6      1         -0.3071124086718622     1.6324861794807202     5.5927048450641283
7      1          1.5937304608807072    -0.1958195726404628     5.5398897010927008
8      1          1.6657147157203507     1.6748062027551869     3.6639777710708712
9      1         -0.0639175538144229     3.6620257152315321     0.0014126698100781
10     1         -0.3219317386606016     5.5460802824061641     1.8929456249572223
11     1          1.6605825031477990     3.5827109489678906     1.8176591579059855
12     1          1.7119226895904516     5.5905559859620322    -0.0697360034832104
13     1         -0.3174397919039442     3.6371977202747119     3.7403183585268955
14     1         -0.4507861512966347     5.4423697140804475     5.5366137621164127
15     1          1.5753602207303850     3.4883431110960279     5.5551781586536881
16     1          1.5980764652555994     5.3885233900561582     3.7141308898510541
17     1          3.7444098463707580     0.0077514699147272     0.0033434917627913
18     1          3.5842857800719652     1.7671890857576000     1.8786994103880108
19     1          5.5349345906844887    -0.1007788932518383     1.8407636955669797
20     1          5.5598505217995804     1.8090535851576162     0.0094076534435734
21     1          3.5803552805268186    -0.0902149774193967     3.7534362188599957
22     1          3.3945765776228818     1.6851439133197317     5.6121140226018600
23     1          5.3095079442760964    -0.2438055002829840     5.5816714707145803
24     1          5.4545459833649970     1.7354383748244986     3.6772017857827635
25     1          3.5910276336949982     3.7522442685480035     0.0207424171482938
26     1          3.5291973584623757     5.4721853196167611     1.8248390540715533
27     1          5.3318343835731294     3.7079116507661194     1.8502826997575375
28     1          5.3271238968683940     5.5051828436016050     0.0505302266433043
29     1          3.4754047232542038     3.5077501635451478     3.7154581907551107
30     1          3.3485115254334854     5.3545460166185936     5.6005691771544956
31     1          5.1918685760969892     3.4389101571636740     5.6293132589811039
32     1          5.3104787742481090     5.4438808996442942     3.7056318585028749
ITEM: TIMESTEP energy, energy_weight, force_weight, nsims
2        -64440.6819741434519528    1    1   500
ITEM: NUMBER OF ATOMS
32        
ITEM: BOX BOUNDS xy xz yz pp pp pp
    0.0000000000000000      7.8478166388304524      0.2075229585506763
    0.0000000000000000      7.6316790990132910      0.2075229585506768
    0.0000000000000000      7.4271292487513074      0.2018071578656669
ITEM: ATOMS id type x y z
1      1         -0.0282318257806341     0.0450706569656647     0.0724189664528745
2      1          0.0889635222321878     1.9764323726811552     1.9239220751706889
3      1          1.8772325290024141     0.0602068427318136     1.9269887368374983
4      1          1.9501187631974164     1.8266097417323235     0.0146381290363639
5      1          0.1258215591275368     0.1388382558001377     3.7201264930669256
6      1          0.1471512180440378     1.9411804243160198     5.6193518780596667
7      1          2.0861511923679972     0.1389403401728122     5.5951587472447839
8      1          2.0176667993581852     1.8883514367883103     3.6687374430818904
9      1          0.0837315587681658     3.6626466184299553     0.0240029963061145
10     1          0.2028197352215886     5.6283081049547974     1.7987422679605349
11     1          2.0354974558292382     3.8180829904519107     1.9194955061384331
12     1          2.0800127327653395     5.5090067552910007     0.0515316508666112
13     1          0.2318695900441658     3.7454062481185164     3.7641114379038805
14     1          0.2817209350202609     5.7522057085967981     5.5024377229904475
15     1          2.1378119180083375     3.8029697727582077     5.5852591266691238
16     1          2.0822772835242183     5.7105573117304793     3.6987482442373194
17     1          3.7059386532283192    -0.0516343504289066    -0.0020402324046320
18     1          3.7774871007201307     1.9713264293198081     1.8959165989124225
19     1          5.6778545430452221     0.0346125793390441     1.8884939259412201
20     1          5.6839078367122440     1.8853651128831332     0.0503202860861399
21     1          3.8600107662212984     0.0269732481914237     3.6476874733650795
22     1          3.8765894888317347     1.9502872835842804     5.5118367550547429
23     1          5.7083102932492142     0.2100512121706423     5.5306377900350316
24     1          5.7090274748147776     1.9218758854731643     3.7560247795778401
25     1          3.7825802254381276     3.7461388902998367     0.0719584844394519
26     1          3.9325157094463052     5.6180536507125556     1.9222108645917768
27     1          5.7358557715108835     3.7309286718851702     1.8378022833926431
28     1          5.7883805253516023     5.6040928232976368     0.0295488337161571
29     1          3.9825486576445042     3.8853643635651753     3.6987088804523012
30     1          4.0646210546015844     5.7217441210061146     5.5519907866251916
31     1          5.8752844348441915     3.8511712212197740     5.5203222502214411
32     1          5.8928207325450579     5.6817423853557916     3.7597933049586563
ITEM: TIMESTEP energy, energy_weight, force_weight, nsims
3        -64439.1760833724401891    1    1   500
ITEM: NUMBER OF ATOMS
32        
ITEM: BOX BOUNDS xy xz yz pp pp pp
    0.0000000000000000      8.2846848943286080      0.2190752408032037
    0.0000000000000000      8.0565155201410565      0.2190752408032041
    0.0000000000000000      7.8405788931029434      0.2130412558398206
ITEM: ATOMS id type x y z
1      1         -0.1468563989350231    -0.2082908415804562    -0.1584596675453891
2      1          0.2938079744493042     2.0586196264163767     2.0201079025344084
3      1          1.8343636623063682     0.2354682436259232     1.8492436551222413
4      1          2.0583508753327271     2.1214770542916357     0.1949356086718826
5      1          0.0434948236841292    -0.1076824866848121     3.9470995220185476
6      1          0.2105068341381744     1.9823410680818010     5.7043292794828906
7      1          2.2300091413364953     0.2160261389664306     5.7284970798629908
8      1          1.9985904726175503     1.8731653978595049     3.7714917243760535
9      1          0.1000822059574504     3.8154654673424480     0.1848157734945547
10     1          0.1408612590876756     5.8651230098794427     1.9879011566152096
11     1          2.1695570767819459     3.8720588372559623     1.8311381903422881
12     1          2.2445325454182226     5.8876234639017797    -0.0450496141461016
13     1          0.3630807587039140     4.0646309139878394     4.0353734635444365
14     1          0.2466883040227275     6.1049015725156464     5.7081915486456323
15     1          2.4448269532540854     4.2952928711786518     6.0175541337992389
16     1          2.1341581798771445     6.1939222460608026     4.0512153531979509
17     1          3.9901688395393506    -0.2212744119737869    -0.0969840406182369
18     1          4.1623209010731177     2.1222143441476233     1.8728539903430421
19     1          5.8623717607800021    -0.0022587931564766     2.0092228268571137
20     1          6.1359563109468214     2.0172095370875969    -0.1763550048110073
21     1          4.0141234255816167    -0.1149950030873272     3.8459787919763100
22     1          4.2137449076585227     2.0230431001763498     5.7180079534197974
23     1          6.0489616493919831     0.0559093956440439     5.8644268439590483
24     1          5.9244229395064787     2.2747812187536312     3.9896401509188570
25     1          3.9724010886997392     3.7922758278830937     0.1943844159756975
26     1          4.2630720765041019     5.9509633011931040     2.0546307554586298
27     1          6.2200609876667619     3.7653919192209093     1.9012698163674260
28     1          5.8871049053894708     6.0545437663614283    -0.0067946456687630
29     1          4.2858531887182147     3.9109703677150103     3.8217106321863779
30     1          4.1314609112179674     6.0147065198758911     5.8787703989860915
31     1          6.0504479085543039     4.2622861930863900     6.0438310499015842
32     1          6.2402336859874383     5.9590885717591799     3.9062461856960353
ITEM: TIMESTEP energy, energy_weight, force_weight, nsims
4        -64440.6498006131660077    1    1   500
ITEM: NUMBER OF ATOMS
32        
ITEM: BOX BOUNDS xy xz yz pp pp pp
   -0.5187925308352458      7.4327707217290993     -0.2593962654176226
   -0.2686129011125673      7.4282441643595654     -0.2593962654176232
    0.0000000000000000      7.4233831323075554     -0.2686129011125673
ITEM: ATOMS id type x y z
1      1         -0.0515139848548715    -0.0146029129849196    -0.0709341375207648
2      1         -0.0805908904043570     1.8083014221939231     1.8458746948535734
3      1          1.7649468556983920    -0.0661940493807326     1.8475880116805099
4      1          1.7391013788272924     1.9114038229561277    -0.0600046905350684
5      1         -0.1993859477585412    -0.0994123810393650     3.7116945355070308
6      1         -0.3154896429345019     1.6929460112467432     5.5436860192265618
7      1          1.6074090604167444    -0.2083530583149018     5.4956656384202915
8      1          1.6860163532238994     1.7502297716202195     3.6380664522475517
9      1         -0.0838509911295917     3.6544071235626969     0.0458007892497111
10     1         -0.2766217082702827     5.4634782389472241     1.9280077481677371
11     1          1.6113041742604282     3.7083469457277247     1.8432208353837733
12     1          1.7319833233312252     5.5113702897203503     0.0464117336815001
13     1         -0.2414700214428315     3.5193482410262198     3.6538827123492457
14     1         -0.3503514253546330     5.3844410216399847     5.5287382949513484
15     1          1.5722139251132325     3.5733818262582338     5.6287891681319628
16     1          1.5780013168306346     5.3980813683152142     3.7460514373199763
17     1          3.6576500979525792     0.0644342142891680    -0.0187670548967867
18     1          3.6302250153527997     1.7375772316559530     1.8433462905587092
19     1          5.5373253447415429    -0.0351381724678422     1.8764753648015713
20     1          5.5309060064060018     1.8027792965184155    -0.0466247847773973
21     1          3.5835931539875139    -0.1223453424762382     3.7695167514012002
22     1          3.4241243133032531     1.6706063402048561     5.6342988030927614
23     1          5.3781876533010431    -0.1885603694386200     5.5420157580217930
24     1          5.3563847671620577     1.7021360415626152     3.7197585566036562
25     1          3.5575258977119120     3.6999271836543728     0.0521091802355461
26     1          3.4663516951262432     5.5109242633437008     1.8794068588005199
27     1          5.3262053831019864     3.6925724166719660     1.8312090591373864
28     1          5.4434621463756239     5.5866784744713804     0.0256804516079048
29     1          3.4671170548970505     3.5131747740360071     3.7298142713946798
30     1          3.2988500265739114     5.3576330389604614     5.4952818495123514
31     1          5.2490967623171887     3.5756820899931330     5.5033866992162048
32     1          5.1781368413613826     5.3674834745598536     3.7513947884986116
ITEM: TIMESTEP energy, energy_weight, force_weight, nsims
5        -64440.8129815053252969    1    1   500
ITEM: NUMBER OF ATOMS
32        
ITEM: BOX BOUNDS xy xz yz pp pp pp
   -0.4150459171013519      7.4327707217290993     -0.2075229585506754
   -0.2133948474208424      7.4298719411476242     -0.2075229585506765
    0.0000000000000000      7.4268096396102736     -0.2133948474208424
ITEM: ATOMS id type x y z
1      1          0.0318234062396047     0.0225522254763283    -0.0161213756847020
2      1         -0.1126773106202494     1.7601816822582010     1.8394395335762583
3      1          1.8541773334538949    -0.0772410339243198     1.7882584176258480
4      1          1.8528529143212673     1.8778784927468957    -0.0292683141087401
5      1         -0.0645383105352337    -0.1283128921647630     3.7404436056600665
6      1         -0.2180175895410255     1.7684184136525227     5.6381256657920753
7      1          1.7281407160843121    -0.1051009271879199     5.6413013695939735
8      1          1.7490973961875100     1.7235757218282304     3.6748767594377303
9      1         -0.1035860896117091     3.7116271475712050    -0.0365272778504952
10     1         -0.2742373167140235     5.5346551115252369     1.8402527692317956
11     1          1.6534743599405064     3.6355453202513752     1.7970814674777051
12     1          1.6628723456081900     5.5396589454245913     0.0628642301944812
13     1         -0.2016284983775417     3.5906356051043389     3.7098911961646373
14     1         -0.2441823105870215     5.4740977297208158     5.6248784654379032
15     1          1.5302475515192289     3.5890604730406892     5.5712479876683494
16     1          1.6258954272535153     5.3958453365156078     3.6716037644295545
17     1          3.7819961266214803    -0.0046048248168714     0.0399696041184546
18     1          3.6156593733604190     1.8297822768868302     1.8655380853308128
19     1          5.4805357083764950    -0.0232150501787471     1.8630003444769581
20     1          5.4826824265886529     1.8997179073795587     0.0170163062462751
21     1          3.5945540718551459    -0.1379997212637749     3.6572492267581156
22     1          3.4619291734100841     1.6918065719384119     5.5258560698320158
23     1          5.4135935847873506    -0.1189187911157730     5.5358956311028411
24     1          5.3495106440801656     1.7507696295219017     3.6609708010685242
25     1          3.5555615880737155     3.7536321777889867     0.0327901072398433
26     1          3.5161530611946636     5.5516941547762109     1.8510832857292392
27     1          5.4362065239370896     3.6797552382659617     1.8688140510628448
28     1          5.4713046916972976     5.6433447659321327    -0.0150890491447962
29     1          3.5328232929861927     3.5374899534829449     3.6605199937234003
30     1          3.4646733896433246     5.3850746593554293     5.5126734827217065
31     1          5.3004287344154388     3.5037711647837950     5.6054179961392325
32     1          5.3632914909664979     5.5033256044192989     3.7722273801937418
ITEM: TIMESTEP energy, energy_weight, force_weight, nsims
6        -64440.6440737027442083    1    1   500
ITEM: NUMBER OF ATOMS
32        
ITEM: BOX BOUNDS xy xz yz pp pp pp
   -0.3112844378260142      7.4327707217290993     -0.1556422189130070
   -0.1589349363427322      7.4311429449410413     -0.1556422189130072
    0.0000000000000000      7.4294408404457641     -0.1589349363427322
ITEM: ATOMS id type x y z
1      1         -0.0326944212147295     0.0488149572252693     0.0685811683981548
2      1         -0.0063334890993469     1.8881114351332395     1.8101825178305264
3      1          1.8515824026218699    -0.0443647530368283     1.9126582812309627
4      1          1.7645191114536869     1.8162036540959217     0.0542074292041444
5      1         -0.0895091043268967    -0.1461864945614367     3.7650541389728183
6      1         -0.1951415876738628     1.7451535934306763     5.5014288767739368
7      1          1.6772660404358504    -0.1652885384245130     5.5574624625366624
8      1          1.7697730012791617     1.7449543618207755     3.6623859530546139
9      1         -0.0767351750834896     3.7332184059452898    -0.0414852547089651
10     1         -0.1542087986139805     5.5752159913668500     1.9165676530012055
11     1          1.6777836285605179     3.6104711123316529     1.8279061918994937
12     1          1.7051555558625153     5.5970275435025494     0.0423136373626748
13     1         -0.1710113314945260     3.7061964754276375     3.6481087965915293
14     1         -0.2718781050116860     5.5200037515095950     5.5742856883757677
15     1          1.6349657106374942     3.5355774719246935     5.5466927450943517
16     1          1.6237584474724227     5.4855943517018240     3.6999573783288322
17     1          3.6862197303878124     0.0165944707049534     0.0300134551072328
18     1          3.5727554437267801     1.8694787797215133     1.8048934988962129
19     1          5.5887568293028433     0.0198226279630278     1.9206412154140220
20     1          5.4600718863656654     1.9149202050933241     0.0395595436431216
21     1          3.5874271336041867    -0.1493854145089620     3.6765702415071932
22     1          3.5931633179790858     1.7704164783901994     5.5513472897808906
23     1          5.4754443256472412    -0.1071533347251940     5.6377450002585192
24     1          5.5160051312012826     1.7477184090296951     3.7243378313908391
25     1          3.6563099904358558     3.7823368520738558     0.0449020545514861
26     1          3.5079529210407263     5.5493101973755232     1.9139316873910155
27     1          5.4101723332414080     3.6229407118150472     1.9204042162512116
28     1          5.5038628398543965     5.5294761086999360     0.0050809945907809
29     1          3.5956268112762633     3.6862639982473158     3.7300845038809234
30     1          3.4455581265610982     5.4192832811973135     5.6102152072242468
31     1          5.4319030701744211     3.5997099497445801     5.6166424164953161
32     1          5.4503741839109612     5.4311030521652599     3.6822515349178819
ITEM: TIMESTEP energy, energy_weight, force_weight, nsims
7        -64440.7826505947377882    1    1   500
ITEM: NUMBER OF ATOMS
32        
ITEM: BOX BOUNDS xy xz yz pp pp pp
   -0.2075229585506750      7.4327707217290993     -0.1037614792753376
   -0.1052183023367959      7.4320497429690917     -0.1037614792753374
    0.0000000000000000      7.4312990331261961     -0.1052183023367959
ITEM: ATOMS id type x y z
1      1         -0.0306315718007922     0.0125009210379933    -0.0348163791000995
2      1          0.0137931276668915     1.8486781539910544     1.8332100664941251
3      1          1.8998291396630440     0.0402897703843052     1.8288352607533238
4      1          1.8412373572869420     1.8442738302463204     0.0466967968643584
5      1          0.0083935258190537    -0.0245693001977898     3.7358433285557151
6      1         -0.1051994536329853     1.7540119251942727     5.5557253602339287
7      1          1.7387821658217200    -0.0343007138198378     5.5457659332697329
8      1          1.8064091894720578     1.8003335993956597     3.7341987820796843
9      1          0.0204705221036114     3.7662840725493609     0.0131251603523075
10     1         -0.0860430143537255     5.5617929971690980     1.9055166060864432
11     1          1.8456434595012010     3.6858343622740115     1.8947055522530509
12     1          1.7827358779019016     5.5669024714131741     0.0084033129466591
13     1         -0.0402534154569718     3.6159123346510693     3.7694491490433184
14     1         -0.1685083961995130     5.4208889704026628     5.6271951355551169
15     1          1.7922111075095297     3.6702885722203202     5.5658096330218809
16     1          1.6989438290455023     5.5080205881095248     3.6545085037680525
17     1          3.6925316757498785    -0.0665078118463418    -0.0189572438335049
18     1          3.6185914437462094     1.7625569604630618     1.8451841186262012
19     1          5.5248469392852657    -0.0717972086500826     1.8062485704720399
20     1          5.4870113904380426     1.8401803190119881    -0.0054307933334086
21     1          3.6500325361179127     0.0063672536287827     3.7726460938873689
22     1          3.5514261981317943     1.7995292766638868     5.6062381291517971
23     1          5.4523542292710845    -0.1006671024900291     5.6254235138656190
24     1          5.4496160273386023     1.8725753917267971     3.7155618272345072
25     1          3.5952961512998378     3.6690898175226248    -0.0444473426470311
26     1          3.6408991329462834     5.5557594114772924     1.8175597507303614
27     1          5.4306336595359479     3.7193954270202454     1.8603655194209749
28     1          5.5069321025234368     5.5215361578761604     0.0060126640477024
29     1          3.5771115874645658     3.6622361174180185     3.6485760977499080
30     1          3.4944957217427461     5.5217242373509237     5.5727489800590133
31     1          5.4888726382250894     3.6909713628345489     5.5692116817192465
32     1          5.4069639493513248     5.4647253588675957     3.6902946673919748
ITEM: TIMESTEP energy, energy_weight, force_weight, nsims
8        -64440.7347628913703375    1    1   500
ITEM: NUMBER OF ATOMS
32        
ITEM: BOX BOUNDS xy xz yz pp pp pp
   -0.1037614792753378      7.4327707217290993     -0.0518807396376687
   -0.0522449454030327      7.4325923352317780     -0.0518807396376692
    0.0000000000000000      7.4324065159637351     -0.0522449454030327
ITEM: ATOMS id type x y z
1      1          0.0449967067569799    -0.0657847731920412    -0.0234187696911501
2      1         -0.0840094203699461     1.8268532535691147     1.8504826690714193
3      1          1.8543053271779495     0.0324615259745131     1.8483220684972286
4      1          1.8480389867104285     1.8582523380167402     0.0083250385385310
5      1         -0.0847721215613084     0.0479445900213164     3.7272292330482997
6      1         -0.0442915496751757     1.8752357076372075     5.5861588321251112
7      1          1.7686945263902469    -0.0246206230990653     5.5506676045300818
8      1          1.8674026514738893     1.9058658006406946     3.6495382877369309
9      1         -0.0648995511453742     3.7819880088837725     0.0699463777217347
10     1         -0.1118612665294586     5.5309635938894939     1.8402393264111181
11     1          1.8170683453923571     3.7195830024528123     1.9089489516885965
12     1          1.8013633401043621     5.5300046666673213     0.0383987850240750
13     1         -0.1186623125399054     3.7422311283889469     3.6455285044215686
14     1         -0.0876192439551657     5.5632206326474742     5.6404726292218204
15     1          1.7962797083427444     3.6063019426357519     5.5451512724139329
16     1          1.7697374002547905     5.5820139209815389     3.6627776334638171
17     1          3.6744338987442831     0.0453923736695805     0.0350980532903355
18     1          3.6161257925819008     1.9040834064530008     1.9126108983790118
19     1          5.5390076407735158    -0.0823672109354165     1.8314594245938103
20     1          5.5845050595195085     1.8553193746169958    -0.0208493867585815
21     1          3.7284489703722650     0.0355565439886681     3.7409955363971683
22     1          3.6986062729716291     1.7928012349313021     5.5198037932318913
23     1          5.4719325921885806     0.0023515178860199     5.5895777391224550
24     1          5.5398458323655531     1.7897546329881506     3.7502986796331998
25     1          3.6834096868166673     3.7853248839085900     0.0021145196537917
26     1          3.6388474390211498     5.5009991020449256     1.7981555542364283
27     1          5.4734042719762170     3.7556515999563436     1.9174486517802527
28     1          5.4971106834731280     5.6229781233951988     0.0445453852127771
29     1          3.6514675827369039     3.6392311877720598     3.7457411279576109
30     1          3.6939383031105533     5.4983197867572935     5.6005316198456834
31     1          5.5033116151569281     3.7228797045649085     5.6176120332600190
32     1          5.4776838950421114     5.6066153825232989     3.6907517251086013
ITEM: TIMESTEP energy, energy_weight, force_weight, nsims
9        -64440.7311167003426817    1    1   500
ITEM: NUMBER OF ATOMS
32        
ITEM: BOX BOUNDS xy xz yz pp pp pp
    0.0000000000000000      7.4327707217291001      0.0000000000000005
    0.0000000000000000      7.4327707217291001      0.0000000000000005
    0.0000000000000000      7.4327707217290993      0.0000000000000005
ITEM: ATOMS id type x y z
1      1          0.0396114650073109    -0.0048796139788152    -0.0648851152924063
2      1          0.0193802063798367     1.8530083228538690     1.8798004881974135
3      1          1.8953097075853735    -0.0345259632795037     1.9083898975014724
4      1          1.8710944838510521     1.8091371369459350    -0.0511292865177023
5      1          0.0042062049514267    -0.0089550021655390     3.6595045963623734
6      1         -0.0303881398187168     1.8811450764209745     5.6402562332252391
7      1          1.8885235879164350     0.0322723471966759     5.6273076033509151
8      1          1.8251480683576120     1.9305038769527607     3.7063875409667517
9      1         -0.0353353920110999     3.7458748787030101     0.0159187650547272
10     1         -0.0656945440240022     5.5514680705688244     1.8651928638979993
11     1          1.8970482326571863     3.7842495306622248     1.9163830991356199
12     1          1.9069851038350658     5.6481520655629316    -0.0309656661037956
13     1          0.0149324363799542     3.7887835208024803     3.7167726082191517
14     1         -0.0270426497168663     5.5086255801287773     5.6314967129296818
15     1          1.8341833444469462     3.6451979992771895     5.5015488391246192
16     1          1.7961721549760234     5.6098495114797178     3.7540836306880876
17     1          3.7871654066163591    -0.0487500566096768     0.0075464921137716
18     1          3.6521075029401087     1.8902539369404536     1.9273620447686857
19     1          5.5391110892439492     0.0539998225704342     1.8211477511551770
20     1          5.5503583579000697     1.8699788249657208     0.0556053010463276
21     1          3.7447867210693495     0.0421170520176060     3.7036277531977739
22     1          3.6423780060653659     1.8333241161515139     5.5537424984096733
23     1          5.5106168194051284    -0.0719930739335955     5.6038705907111588
24     1          5.5628639946393790     1.8750316225023522     3.6539374510917981
25     1          3.6825142246856308     3.6884329400113431     0.0087394518146091
26     1          3.6904204629023338     5.6135309628181904     1.8564980087077205
27     1          5.6433081288835805     3.7015168463128028     1.8128379134882839
28     1          5.6228628064593202     5.5599436590228120     0.0372114233412646
29     1          3.7808066712639210     3.7250229837202720     3.7677301977331816
30     1          3.7175352104952015     5.5655056013538822     5.6455320138835230
31     1          5.5705227215910487     3.6628976561968432     5.6204218845543048
32     1          5.6455840432785749     5.6212729368019430     3.6494666395026782
ITEM: TIMESTEP energy, energy_weight, force_weight, nsims
10       -64440.7521304288966348    1    1   500
ITEM: NUMBER OF ATOMS
32        
ITEM: BOX BOUNDS xy xz yz pp pp pp
    0.0000000000000000      7.5365322010044391      0.0518807396376696
    0.0000000000000000      7.4841088691040838      0.0518807396376699
    0.0000000000000000      7.4324139487344567      0.0515165338723054
ITEM: ATOMS id type x y z
1      1          0.0727807079975711    -0.0355437605996922    -0.0703961087154384
2      1          0.0134429892823190     1.8723536973212309     1.8099221205195481
3      1          1.7996794481717824     0.0724729340276261     1.8815899152616151
4      1          1.8210163198638569     1.8006599942133692    -0.0076078189179246
5      1         -0.0339242003791766    -0.0072981725527601     3.7539547183300614
6      1          0.1034332343547760     1.8505064745056927     5.5011821974678492
7      1          1.9255176251610568     0.0544295966788095     5.5733695179449327
8      1          1.8711088373043245     1.9090103163092007     3.7816739061518660
9      1          0.0587554472006901     3.7146045827893968    -0.0443834031362627
10     1          0.1162585288900366     5.5543066785067827     1.9090898468719324
11     1          1.8342952880391561     3.6919722103372821     1.8183214915230130
12     1          1.8614865488562784     5.5230377145887939    -0.0300968170440053
13     1          0.0743265496524450     3.6945560759195435     3.7337385523895033
14     1          0.1352777065531604     5.6781610938590923     5.5879875896993036
15     1          1.8576366198701173     3.7662516247404634     5.5545372674816296
16     1          1.9946422159137325     5.6701886055842312     3.6743944432158329
17     1          3.7407504837536956     0.0504235450558552     0.0227469028901018
18     1          3.7007509758771988     1.9166013779437039     1.8097036075494555
19     1          5.6433751443052911     0.0365422043191038     1.9223247463904440
20     1          5.6033404556384125     1.8180465579304415    -0.0399566573883964
21     1          3.7412563927954596     0.0279735539239601     3.7362061138204830
22     1          3.7184096401446580     1.8254971746573734     5.6430335338864204
23     1          5.5569477577116029     0.0994414621955782     5.5381027137581880