ITEM: TIMESTEP energy, energy_weight, force_weight, nsims
1        -2013.6526480784150408    1    1   594
ITEM: NUMBER OF ATOMS
1         
ITEM: BOX BOUNDS xy xz yz pp pp pp
   -0.8376159293424141      3.3504637173696565      0.8376159293424144
    0.0000000000000000      3.5537034220073584     -0.8376159293424141
    0.0000000000000000      2.0517316273160420      1.1845678073357864
ITEM: ATOMS id type x y z
1      1          0.0000000000000000     0.0000000000000000     0.0000000000000000
ITEM: TIMESTEP energy, energy_weight, force_weight, nsims
2        -2013.6932823120309877    1    1   594
ITEM: NUMBER OF ATOMS
1         
ITEM: BOX BOUNDS xy xz yz pp pp pp
   -0.8461184880443287      3.3844739521773164      0.8461184880443289
    0.0000000000000000      3.5897767235007230     -0.8461184880443287
    0.0000000000000000      2.0725585576437955      1.1965922411669074
ITEM: ATOMS id type x y z
1      1          0.0000000000000000     0.0000000000000000     0.0000000000000000
ITEM: TIMESTEP energy, energy_weight, force_weight, nsims
3        -2013.6971172140877115    1    1   594
ITEM: NUMBER OF ATOMS
1         
ITEM: BOX BOUNDS xy xz yz pp pp pp
   -0.8470596850927441      3.3882387403709782      0.8470596850927443
    0.0000000000000000      3.5937698843929269     -0.8470596850927441
    0.0000000000000000      2.0748640101598270      1.1979232947976419
ITEM: ATOMS id type x y z
1      1          0.0000000000000000     0.0000000000000000     0.0000000000000000
ITEM: TIMESTEP energy, energy_weight, force_weight, nsims
4        -2013.7008276240071609    1    1   594
ITEM: NUMBER OF ATOMS
1         
ITEM: BOX BOUNDS xy xz yz pp pp pp
   -0.8479973504449180      3.3919894017796737      0.8479973504449183
    0.0000000000000000      3.5977480615669619     -0.8479973504449180
    0.0000000000000000      2.0771608118221403      1.1992493538556537
ITEM: ATOMS id type x y z
1      1          0.0000000000000000     0.0000000000000000     0.0000000000000000
ITEM: TIMESTEP energy, energy_weight, force_weight, nsims
5        -2013.7044087797953580    1    1   594
ITEM: NUMBER OF ATOMS
1         
ITEM: BOX BOUNDS xy xz yz pp pp pp
   -0.8489350157970917      3.3957400631883687      0.8489350157970921
    0.0000000000000000      3.6017262387409961     -0.8489350157970917
    0.0000000000000000      2.0794576134844531      1.2005754129136652
ITEM: ATOMS id type x y z
1      1          0.0000000000000000     0.0000000000000000     0.0000000000000000
ITEM: TIMESTEP energy, energy_weight, force_weight, nsims
6        -2013.7078644910470757    1    1   594
ITEM: NUMBER OF ATOMS
1         
ITEM: BOX BOUNDS xy xz yz pp pp pp
   -0.8498709153011446      3.3994836612045800      0.8498709153011449
    0.0000000000000000      3.6056969240559456     -0.8498709153011446
    0.0000000000000000      2.0817500897199066      1.2018989746853150
ITEM: ATOMS id type x y z
1      1          0.0000000000000000     0.0000000000000000     0.0000000000000000
ITEM: TIMESTEP energy, energy_weight, force_weight, nsims
7        -2013.7111980231300095    1    1   594
ITEM: NUMBER OF ATOMS
1         
ITEM: BOX BOUNDS xy xz yz pp pp pp
   -0.8508068148051976      3.4032272592207922      0.8508068148051979
    0.0000000000000000      3.6096676093708959     -0.8508068148051976
    0.0000000000000000      2.0840425659553601      1.2032225364569651
ITEM: ATOMS id type x y z
1      1          0.0000000000000000     0.0000000000000000     0.0000000000000000
ITEM: TIMESTEP energy, energy_weight, force_weight, nsims
8        -2013.7144119611273254    1    1   594
ITEM: NUMBER OF ATOMS
1         
ITEM: BOX BOUNDS xy xz yz pp pp pp
   -0.8517409484611302      3.4069637938445210      0.8517409484611306
    0.0000000000000000      3.6136308028267612     -0.8517409484611302
    0.0000000000000000      2.0863307167639533      1.2045436009422541
ITEM: ATOMS id type x y z
1      1          0.0000000000000000     0.0000000000000000     0.0000000000000000
ITEM: TIMESTEP energy, energy_weight, force_weight, nsims
9        -2013.7175075295508577    1    1   594
ITEM: NUMBER OF ATOMS
1         
ITEM: BOX BOUNDS xy xz yz pp pp pp
   -0.8526750821170618      3.4107003284682489      0.8526750821170621
    0.0000000000000000      3.6175939962826256     -0.8526750821170618
    0.0000000000000000      2.0886188675725483      1.2058646654275416
ITEM: ATOMS id type x y z
1      1          0.0000000000000000     0.0000000000000000     0.0000000000000000
ITEM: TIMESTEP energy, energy_weight, force_weight, nsims
10       -2013.7204829596612399    1    1   594
ITEM: NUMBER OF ATOMS
1         
ITEM: BOX BOUNDS xy xz yz pp pp pp
   -0.8536074499248729      3.4144297996994935      0.8536074499248733
    0.0000000000000000      3.6215496978794057     -0.8536074499248729
    0.0000000000000000      2.0909026929542831      1.2071832326264684
ITEM: ATOMS id type x y z
1      1          0.0000000000000000     0.0000000000000000     0.0000000000000000
ITEM: TIMESTEP energy, energy_weight, force_weight, nsims
11       -2013.7233430134515402    1    1   594
ITEM: NUMBER OF ATOMS
1         
ITEM: BOX BOUNDS xy xz yz pp pp pp
   -0.8545380518845640      3.4181522075382560      0.8545380518845642
    0.0000000000000000      3.6254979076171021     -0.8545380518845640
    0.0000000000000000      2.0931821929091581      1.2084993025390345
ITEM: ATOMS id type x y z
1      1          0.0000000000000000     0.0000000000000000     0.0000000000000000
ITEM: TIMESTEP energy, energy_weight, force_weight, nsims
12       -2013.6577315753836501    1    1   594
ITEM: NUMBER OF ATOMS
1         
ITEM: BOX BOUNDS xy xz yz pp pp pp
   -0.8385641897833126      3.3542567591332522      0.8385641897833129
    0.0000000000000000      3.5577265503359015     -0.8385641897833126
    0.0000000000000000      2.0540543815395118      1.1859088501119670
ITEM: ATOMS id type x y z
1      1          0.0000000000000000     0.0000000000000000     0.0000000000000000
ITEM: TIMESTEP energy, energy_weight, force_weight, nsims
13       -2013.7260931332018572    1    1   594
ITEM: NUMBER OF ATOMS
1         
ITEM: BOX BOUNDS xy xz yz pp pp pp
   -0.8554686538442536      3.4218746153770163      0.8554686538442540
    0.0000000000000000      3.6294461173547958     -0.8554686538442536
    0.0000000000000000      2.0954616928640339      1.2098153724515983
ITEM: ATOMS id type x y z
1      1          0.0000000000000000     0.0000000000000000     0.0000000000000000
ITEM: TIMESTEP energy, energy_weight, force_weight, nsims
14       -2013.7287322304555346    1    1   594
ITEM: NUMBER OF ATOMS
1         
ITEM: BOX BOUNDS xy xz yz pp pp pp
   -0.8563974899558238      3.4255899598232951      0.8563974899558240
    0.0000000000000000      3.6333868352334071     -0.8563974899558238
    0.0000000000000000      2.0977368673920491      1.2111289450778027
ITEM: ATOMS id type x y z
1      1          0.0000000000000000     0.0000000000000000     0.0000000000000000
ITEM: TIMESTEP energy, energy_weight, force_weight, nsims
15       -2013.7312589446432867    1    1   594
ITEM: NUMBER OF ATOMS
1         
ITEM: BOX BOUNDS xy xz yz pp pp pp
   -0.8573263260673927      3.4293053042695725      0.8573263260673929
    0.0000000000000000      3.6373275531120166     -0.8573263260673927
    0.0000000000000000      2.1000120419200661      1.2124425177040055
ITEM: ATOMS id type x y z
1      1          0.0000000000000000     0.0000000000000000     0.0000000000000000
ITEM: TIMESTEP energy, energy_weight, force_weight, nsims
16       -2013.7336764050755846    1    1   594
ITEM: NUMBER OF ATOMS
1         
ITEM: BOX BOUNDS xy xz yz pp pp pp
   -0.8582533963308414      3.4330135853233674      0.8582533963308416
    0.0000000000000000      3.6412607791315428     -0.8582533963308414
    0.0000000000000000      2.1022828910212232      1.2137535930438474
ITEM: ATOMS id type x y z
1      1          0.0000000000000000     0.0000000000000000     0.0000000000000000
ITEM: TIMESTEP energy, energy_weight, force_weight, nsims
17       -2013.7359844756954317    1    1   594
ITEM: NUMBER OF ATOMS
1         
ITEM: BOX BOUNDS xy xz yz pp pp pp
   -0.8591804665942901      3.4367218663771624      0.8591804665942904
    0.0000000000000000      3.6451940051510689     -0.8591804665942901
    0.0000000000000000      2.1045537401223804      1.2150646683836894
ITEM: ATOMS id type x y z
1      1          0.0000000000000000     0.0000000000000000     0.0000000000000000
ITEM: TIMESTEP energy, energy_weight, force_weight, nsims
18       -2013.7381871021555071    1    1   594
ITEM: NUMBER OF ATOMS
1         
ITEM: BOX BOUNDS xy xz yz pp pp pp
   -0.8601057710096184      3.4404230840384735      0.8601057710096186
    0.0000000000000000      3.6491197393115096     -0.8601057710096184
    0.0000000000000000      2.1068202637966764      1.2163732464371704
ITEM: ATOMS id type x y z
1      1          0.0000000000000000     0.0000000000000000     0.0000000000000000
ITEM: TIMESTEP energy, energy_weight, force_weight, nsims
19       -2013.7402934002730035    1    1   594
ITEM: NUMBER OF ATOMS
1         
ITEM: BOX BOUNDS xy xz yz pp pp pp
   -0.8610293095768249      3.4441172383073013      0.8610293095768251
    0.0000000000000000      3.6530379816128660     -0.8610293095768249
    0.0000000000000000      2.1090824620441158      1.2176793272042883
ITEM: ATOMS id type x y z
1      1          0.0000000000000000     0.0000000000000000     0.0000000000000000
ITEM: TIMESTEP energy, energy_weight, force_weight, nsims
20       -2013.7422913970340232    1    1   594
ITEM: NUMBER OF ATOMS
1         
ITEM: BOX BOUNDS xy xz yz pp pp pp
   -0.8619528481440317      3.4478113925761287      0.8619528481440321
    0.0000000000000000      3.6569562239142215     -0.8619528481440317
    0.0000000000000000      2.1113446602915538      1.2189854079714069
ITEM: ATOMS id type x y z
1      1          0.0000000000000000     0.0000000000000000     0.0000000000000000
ITEM: TIMESTEP energy, energy_weight, force_weight, nsims
21       -2013.7441915688259542    1    1   594
ITEM: NUMBER OF ATOMS
1         
ITEM: BOX BOUNDS xy xz yz pp pp pp
   -0.8628763867112388      3.4515055468449569      0.8628763867112391
    0.0000000000000000      3.6608744662155779     -0.8628763867112388
    0.0000000000000000      2.1136068585389922      1.2202914887385259
ITEM: ATOMS id type x y z
1      1          0.0000000000000000     0.0000000000000000     0.0000000000000000
ITEM: TIMESTEP energy, energy_weight, force_weight, nsims
22       -2013.7459930993068156    1    1   594
ITEM: NUMBER OF ATOMS
1         
ITEM: BOX BOUNDS xy xz yz pp pp pp
   -0.8637963935822045      3.4551855743288180      0.8637963935822047
    0.0000000000000000      3.6647777247987645     -0.8637963935822045
    0.0000000000000000      2.1158604059327102      1.2215925749329219
ITEM: ATOMS id type x y z
1      1          0.0000000000000000     0.0000000000000000     0.0000000000000000
ITEM: TIMESTEP energy, energy_weight, force_weight, nsims
23       -2013.6626698995535207    1    1   594
ITEM: NUMBER OF ATOMS
1         
ITEM: BOX BOUNDS xy xz yz pp pp pp
   -0.8395124502242122      3.3580498008968487      0.8395124502242124
    0.0000000000000000      3.5617496786644463     -0.8395124502242122
    0.0000000000000000      2.0563771357629803      1.1872498928881490
ITEM: ATOMS id type x y z
1      1          0.0000000000000000     0.0000000000000000     0.0000000000000000
ITEM: TIMESTEP energy, energy_weight, force_weight, nsims
24       -2013.7476954442488477    1    1   594
ITEM: NUMBER OF ATOMS
1         
ITEM: BOX BOUNDS xy xz yz pp pp pp
   -0.8647181663012906      3.4588726652051625      0.8647181663012909
    0.0000000000000000      3.6686884752410363     -0.8647181663012906
    0.0000000000000000      2.1181182787532888      1.2228961584136790
ITEM: ATOMS id type x y z
1      1          0.0000000000000000     0.0000000000000000     0.0000000000000000
ITEM: TIMESTEP energy, energy_weight, force_weight, nsims
25       -2013.7493007805637717    1    1   594
ITEM: NUMBER OF ATOMS
1         
ITEM: BOX BOUNDS xy xz yz pp pp pp
   -0.8656364073241345      3.4625456292965398      0.8656364073241348
    0.0000000000000000      3.6725842419651373     -0.8656364073241345
    0.0000000000000000      2.1203675007201501      1.2241947473217121
ITEM: ATOMS id type x y z
1      1          0.0000000000000000     0.0000000000000000     0.0000000000000000
ITEM: TIMESTEP energy, energy_weight, force_weight, nsims
26       -2013.7508121015046072    1    1   594
ITEM: NUMBER OF ATOMS
1         
ITEM: BOX BOUNDS xy xz yz pp pp pp
   -0.8665546483469795      3.4662185933879179      0.8665546483469797
    0.0000000000000000      3.6764800086892393     -0.8665546483469795
    0.0000000000000000      2.1226167226870092      1.2254933362297467
ITEM: ATOMS id type x y z
1      1          0.0000000000000000     0.0000000000000000     0.0000000000000000
ITEM: TIMESTEP energy, energy_weight, force_weight, nsims
27       -2013.7522313118699913    1    1   594
ITEM: NUMBER OF ATOMS
1         
ITEM: BOX BOUNDS xy xz yz pp pp pp
   -0.8674728893698234      3.4698915574792952      0.8674728893698236
    0.0000000000000000      3.6803757754133404     -0.8674728893698234
    0.0000000000000000      2.1248659446538705      1.2267919251377799
ITEM: ATOMS id type x y z
1      1          0.0000000000000000     0.0000000000000000     0.0000000000000000
ITEM: TIMESTEP energy, energy_weight, force_weight, nsims
28       -2013.7535648063374083    1    1   594
ITEM: NUMBER OF ATOMS
1         
ITEM: BOX BOUNDS xy xz yz pp pp pp
   -0.8683893645445468      3.4735574581781892      0.8683893645445472
    0.0000000000000000      3.6842640502783572     -0.8683893645445468
    0.0000000000000000      2.1271108411938711      1.2280880167594523
ITEM: ATOMS id type x y z
1      1          0.0000000000000000     0.0000000000000000     0.0000000000000000
ITEM: TIMESTEP energy, energy_weight, force_weight, nsims
29       -2013.7547969383545023    1    1   594
ITEM: NUMBER OF ATOMS
1         
ITEM: BOX BOUNDS xy xz yz pp pp pp
   -0.8693040738711495      3.4772162954845998      0.8693040738711498
    0.0000000000000000      3.6881448332842894     -0.8693040738711495
    0.0000000000000000      2.1293514123070127      1.2293816110947628
ITEM: ATOMS id type x y z
1      1          0.0000000000000000     0.0000000000000000     0.0000000000000000
ITEM: TIMESTEP energy, energy_weight, force_weight, nsims
30       -2013.7559473001258539    1    1   594
ITEM: NUMBER OF ATOMS
1         
ITEM: BOX BOUNDS xy xz yz pp pp pp
   -0.8702187831977521      3.4808751327910104      0.8702187831977525
    0.0000000000000000      3.6920256162902212     -0.8702187831977521
    0.0000000000000000      2.1315919834201535      1.2306752054300736
ITEM: ATOMS id type x y z
1      1          0.0000000000000000     0.0000000000000000     0.0000000000000000
ITEM: TIMESTEP energy, energy_weight, force_weight, nsims
31       -2013.7570060955492863    1    1   594
ITEM: NUMBER OF ATOMS
1         
ITEM: BOX BOUNDS xy xz yz pp pp pp
   -0.8711334925243550      3.4845339700974218      0.8711334925243552
    0.0000000000000000      3.6959063992961538     -0.8711334925243550
    0.0000000000000000      2.1338325545332957      1.2319687997653843
ITEM: ATOMS id type x y z
1      1          0.0000000000000000     0.0000000000000000     0.0000000000000000
ITEM: TIMESTEP energy, energy_weight, force_weight, nsims
32       -2013.7579832567842004    1    1   594
ITEM: NUMBER OF ATOMS
1         
ITEM: BOX BOUNDS xy xz yz pp pp pp
   -0.8720464360028367      3.4881857440113486      0.8720464360028370
    0.0000000000000000      3.6997796904430005     -0.8720464360028367
    0.0000000000000000      2.1360688002195776      1.2332598968143333
ITEM: ATOMS id type x y z
1      1          0.0000000000000000     0.0000000000000000     0.0000000000000000
ITEM: TIMESTEP energy, energy_weight, force_weight, nsims
33       -2013.7588674911014550    1    1   594
ITEM: NUMBER OF ATOMS
1         
ITEM: BOX BOUNDS xy xz yz pp pp pp
   -0.8729576136331977      3.4918304545327925      0.8729576136331980
    0.0000000000000000      3.7036454897307629     -0.8729576136331977
    0.0000000000000000      2.1383007204790001      1.2345484965769207
ITEM: ATOMS id type x y z
1      1          0.0000000000000000     0.0000000000000000     0.0000000000000000
ITEM: TIMESTEP energy, energy_weight, force_weight, nsims
34       -2013.6674601937284024    1    1   594
ITEM: NUMBER OF ATOMS
1         
ITEM: BOX BOUNDS xy xz yz pp pp pp
   -0.8404589448169895      3.3618357792679596      0.8404589448169897
    0.0000000000000000      3.5657653151339028     -0.8404589448169895
    0.0000000000000000      2.0586955645595904      1.1885884383779675
ITEM: ATOMS id type x y z
1      1          0.0000000000000000     0.0000000000000000     0.0000000000000000
ITEM: TIMESTEP energy, energy_weight, force_weight, nsims
35       -2013.7596787988773031    1    1   594
ITEM: NUMBER OF ATOMS
1         
ITEM: BOX BOUNDS xy xz yz pp pp pp
   -0.8738687912635587      3.4954751650542364      0.8738687912635590
    0.0000000000000000      3.7075112890185249     -0.8738687912635587
    0.0000000000000000      2.1405326407384226      1.2358370963395082
ITEM: ATOMS id type x y z
1      1          0.0000000000000000     0.0000000000000000     0.0000000000000000
ITEM: TIMESTEP energy, energy_weight, force_weight, nsims
36       -2013.7604026220144533    1    1   594
ITEM: NUMBER OF ATOMS
1         
ITEM: BOX BOUNDS xy xz yz pp pp pp
   -0.8747782030457990      3.4991128121831978      0.8747782030457993
    0.0000000000000000      3.7113695964472040     -0.8747782030457990
    0.0000000000000000      2.1427602355709867      1.2371231988157343
ITEM: ATOMS id type x y z
1      1          0.0000000000000000     0.0000000000000000     0.0000000000000000
ITEM: TIMESTEP energy, energy_weight, force_weight, nsims
37       -2013.7610419537668349    1    1   594
ITEM: NUMBER OF ATOMS
1         
ITEM: BOX BOUNDS xy xz yz pp pp pp
   -0.8756876148280395      3.5027504593121579      0.8756876148280398
    0.0000000000000000      3.7152279038758818     -0.8756876148280395
    0.0000000000000000      2.1449878304035481      1.2384093012919610
ITEM: ATOMS id type x y z
1      1          0.0000000000000000     0.0000000000000000     0.0000000000000000
ITEM: TIMESTEP energy, energy_weight, force_weight, nsims
38       -2013.7616059099516406    1    1   594
ITEM: NUMBER OF ATOMS
1         
ITEM: BOX BOUNDS xy xz yz pp pp pp
   -0.8765952607621582      3.5063810430486346      0.8765952607621585
    0.0000000000000000      3.7190787194454735     -0.8765952607621582
    0.0000000000000000      2.1472110998092533      1.2396929064818243
ITEM: ATOMS id type x y z
1      1          0.0000000000000000     0.0000000000000000     0.0000000000000000
ITEM: TIMESTEP energy, energy_weight, force_weight, nsims
39       -2013.7620900006886586    1    1   594
ITEM: NUMBER OF ATOMS
1         
ITEM: BOX BOUNDS xy xz yz pp pp pp
   -0.8775011408481564      3.5100045633926276      0.8775011408481568
    0.0000000000000000      3.7229220431559806     -0.8775011408481564
    0.0000000000000000      2.1494300437880973      1.2409740143853267
ITEM: ATOMS id type x y z
1      1          0.0000000000000000     0.0000000000000000     0.0000000000000000
ITEM: TIMESTEP energy, energy_weight, force_weight, nsims
40       -2013.7624969471178247    1    1   594
ITEM: NUMBER OF ATOMS
1         
ITEM: BOX BOUNDS xy xz yz pp pp pp
   -0.8784070209341555      3.5136280837366218      0.8784070209341557
    0.0000000000000000      3.7267653668664895     -0.8784070209341555
    0.0000000000000000      2.1516489877669414      1.2422551222888303
ITEM: ATOMS id type x y z
1      1          0.0000000000000000     0.0000000000000000     0.0000000000000000
ITEM: TIMESTEP energy, energy_weight, force_weight, nsims
41       -2013.7628263410679210    1    1   594
ITEM: NUMBER OF ATOMS
1         
ITEM: BOX BOUNDS xy xz yz pp pp pp
   -0.8793129010201534      3.5172516040806152      0.8793129010201537
    0.0000000000000000      3.7306086905769971     -0.8793129010201534
    0.0000000000000000      2.1538679317457872      1.2435362301923321
ITEM: ATOMS id type x y z
1      1          0.0000000000000000     0.0000000000000000     0.0000000000000000
ITEM: TIMESTEP energy, energy_weight, force_weight, nsims
42       -2013.7630833527043706    1    1   594
ITEM: NUMBER OF ATOMS
1         
ITEM: BOX BOUNDS xy xz yz pp pp pp
   -0.8802170152580314      3.5208680610321257      0.8802170152580318
    0.0000000000000000      3.7344445224284208     -0.8802170152580314
    0.0000000000000000      2.1560825502977714      1.2448148408094739
ITEM: ATOMS id type x y z
1      1          0.0000000000000000     0.0000000000000000     0.0000000000000000
ITEM: TIMESTEP energy, energy_weight, force_weight, nsims
43       -2013.7632683901979362    1    1   594
ITEM: NUMBER OF ATOMS
1         
ITEM: BOX BOUNDS xy xz yz pp pp pp
   -0.8811211294959086      3.5244845179836362      0.8811211294959089
    0.0000000000000000      3.7382803542798437     -0.8811211294959086
    0.0000000000000000      2.1582971688497579      1.2460934514266144
ITEM: ATOMS id type x y z
1      1          0.0000000000000000     0.0000000000000000     0.0000000000000000
ITEM: TIMESTEP energy, energy_weight, force_weight, nsims
44       -2013.7633722016742013    1    1   594
ITEM: NUMBER OF ATOMS
1         
ITEM: BOX BOUNDS xy xz yz pp pp pp
   -0.8820234778856656      3.5280939115426624      0.8820234778856659
    0.0000000000000000      3.7421086942721820     -0.8820234778856656
    0.0000000000000000      2.1605074619748827      1.2473695647573944
ITEM: ATOMS id type x y z
1      1          0.0000000000000000     0.0000000000000000     0.0000000000000000
ITEM: TIMESTEP energy, energy_weight, force_weight, nsims
45       -2013.6721055872194484    1    1   594
ITEM: NUMBER OF ATOMS
1         
ITEM: BOX BOUNDS xy xz yz pp pp pp
   -0.8414054394097678      3.3656217576390728      0.8414054394097681
    0.0000000000000000      3.5697809516033630     -0.8414054394097678
    0.0000000000000000      2.0610139933562004      1.1899269838677875
ITEM: ATOMS id type x y z
1      1          0.0000000000000000     0.0000000000000000     0.0000000000000000
ITEM: TIMESTEP energy, energy_weight, force_weight, nsims
46       -2013.7634136990534444    1    1   594
ITEM: NUMBER OF ATOMS
1         
ITEM: BOX BOUNDS xy xz yz pp pp pp
   -0.8829240604273011      3.5316962417092062      0.8829240604273014
    0.0000000000000000      3.7459295424054355     -0.8829240604273011
    0.0000000000000000      2.1627134296731505      1.2486431808018117
ITEM: ATOMS id type x y z
1      1          0.0000000000000000     0.0000000000000000     0.0000000000000000
ITEM: TIMESTEP energy, energy_weight, force_weight, nsims
47       -2013.7633825420048197    1    1   594
ITEM: NUMBER OF ATOMS
1         
ITEM: BOX BOUNDS xy xz yz pp pp pp
   -0.8838246429689370      3.5352985718757499      0.8838246429689374
    0.0000000000000000      3.7497503905386891     -0.8838246429689370
    0.0000000000000000      2.1649193973714174      1.2499167968462295
ITEM: ATOMS id type x y z
1      1          0.0000000000000000     0.0000000000000000     0.0000000000000000
ITEM: TIMESTEP energy, energy_weight, force_weight, nsims
48       -2013.7632781863005675    1    1   594
ITEM: NUMBER OF ATOMS
1         
ITEM: BOX BOUNDS xy xz yz pp pp pp
   -0.8847234596624525      3.5388938386498099      0.8847234596624528
    0.0000000000000000      3.7535637468128584     -0.8847234596624525
    0.0000000000000000      2.1671210396428235      1.2511879156042867
ITEM: ATOMS id type x y z
1      1          0.0000000000000000     0.0000000000000000     0.0000000000000000
ITEM: TIMESTEP energy, energy_weight, force_weight, nsims
49       -2013.7631071626760786    1    1   594
ITEM: NUMBER OF ATOMS
1         
ITEM: BOX BOUNDS xy xz yz pp pp pp
   -0.8856222763559674      3.5424891054238694      0.8856222763559677
    0.0000000000000000      3.7573771030870269     -0.8856222763559674
    0.0000000000000000      2.1693226819142306      1.2524590343623427
ITEM: ATOMS id type x y z
1      1          0.0000000000000000     0.0000000000000000     0.0000000000000000
ITEM: TIMESTEP energy, energy_weight, force_weight, nsims
50       -2013.7628685187316933    1    1   594
ITEM: NUMBER OF ATOMS
1         
ITEM: BOX BOUNDS xy xz yz pp pp pp
   -0.8865210930494825      3.5460843721979298      0.8865210930494827
    0.0000000000000000      3.7611904593611958     -0.8865210930494825
    0.0000000000000000      2.1715243241856381      1.2537301531203990
ITEM: ATOMS id type x y z
1      1          0.0000000000000000     0.0000000000000000     0.0000000000000000
ITEM: TIMESTEP energy, energy_weight, force_weight, nsims
51       -2013.7625675606907407    1    1   594
ITEM: NUMBER OF ATOMS
1         
ITEM: BOX BOUNDS xy xz yz pp pp pp
   -0.8874181438948765      3.5496725755795060      0.8874181438948768
    0.0000000000000000      3.7649963237762796     -0.8874181438948765
    0.0000000000000000      2.1737216410301854      1.2549987745920936
ITEM: ATOMS id type x y z
1      1          0.0000000000000000     0.0000000000000000     0.0000000000000000
ITEM: TIMESTEP energy, energy_weight, force_weight, nsims
52       -2013.7621999347288693    1    1   594
ITEM: NUMBER OF ATOMS
1         
ITEM: BOX BOUNDS xy xz yz pp pp pp
   -0.8883134288921500      3.5532537155686001      0.8883134288921504
    0.0000000000000000      3.7687946963322796     -0.8883134288921500
    0.0000000000000000      2.1759146324478751      1.2562648987774270
ITEM: ATOMS id type x y z
1      1          0.0000000000000000     0.0000000000000000     0.0000000000000000
ITEM: TIMESTEP energy, energy_weight, force_weight, nsims
53       -2013.7617676817014853    1    1   594
ITEM: NUMBER OF ATOMS
1         
ITEM: BOX BOUNDS xy xz yz pp pp pp
   -0.8892087138894227      3.5568348555576925      0.8892087138894229
    0.0000000000000000      3.7725930688882774     -0.8892087138894227
    0.0000000000000000      2.1781076238655643      1.2575310229627590
ITEM: ATOMS id type x y z
1      1          0.0000000000000000     0.0000000000000000     0.0000000000000000
ITEM: TIMESTEP energy, energy_weight, force_weight, nsims
54       -2013.7612721621776473    1    1   594
ITEM: NUMBER OF ATOMS
1         
ITEM: BOX BOUNDS xy xz yz pp pp pp
   -0.8901022330385755      3.5604089321543020      0.8901022330385758
    0.0000000000000000      3.7763839495851923     -0.8901022330385755
    0.0000000000000000      2.1802962898563920      1.2587946498617311
ITEM: ATOMS id type x y z
1      1          0.0000000000000000     0.0000000000000000     0.0000000000000000
ITEM: TIMESTEP energy, energy_weight, force_weight, nsims
55       -2013.7607143285572420    1    1   594
ITEM: NUMBER OF ATOMS
1         
ITEM: BOX BOUNDS xy xz yz pp pp pp
   -0.8909957521877280      3.5639830087509119      0.8909957521877283
    0.0000000000000000      3.7801748302821068     -0.8909957521877280
    0.0000000000000000      2.1824849558472210      1.2600582767607025
ITEM: ATOMS id type x y z
1      1          0.0000000000000000     0.0000000000000000     0.0000000000000000
ITEM: TIMESTEP energy, energy_weight, force_weight, nsims
56       -2013.6766145155584127    1    1   594
ITEM: NUMBER OF ATOMS
1         
ITEM: BOX BOUNDS xy xz yz pp pp pp
   -0.8423501681544253      3.3694006726177013      0.8423501681544255
    0.0000000000000000      3.5737890962137366     -0.8423501681544253
    0.0000000000000000      2.0633280967259493      1.1912630320712458
ITEM: ATOMS id type x y z
1      1          0.0000000000000000     0.0000000000000000     0.0000000000000000
ITEM: TIMESTEP energy, energy_weight, force_weight, nsims
57       -2013.7600940447823632    1    1   594
ITEM: NUMBER OF ATOMS
1         
ITEM: BOX BOUNDS xy xz yz pp pp pp
   -0.8918875054887591      3.5675500219550380      0.8918875054887594
    0.0000000000000000      3.7839582191199357     -0.8918875054887591
    0.0000000000000000      2.1846692964111920      1.2613194063733115
ITEM: ATOMS id type x y z
1      1          0.0000000000000000     0.0000000000000000     0.0000000000000000
ITEM: TIMESTEP energy, energy_weight, force_weight, nsims
58       -2013.7594151204489208    1    1   594
ITEM: NUMBER OF ATOMS
1         
ITEM: BOX BOUNDS xy xz yz pp pp pp
   -0.8927792587897905      3.5711170351591637      0.8927792587897907
    0.0000000000000000      3.7877416079577637     -0.8927792587897905
    0.0000000000000000      2.1868536369751617      1.2625805359859210
ITEM: ATOMS id type x y z
1      1          0.0000000000000000     0.0000000000000000     0.0000000000000000
ITEM: TIMESTEP energy, energy_weight, force_weight, nsims
59       -2013.7586791882406487    1    1   594
ITEM: NUMBER OF ATOMS
1         
ITEM: BOX BOUNDS xy xz yz pp pp pp
   -0.8936692462427014      3.5746769849708073      0.8936692462427016
    0.0000000000000000      3.7915175049365102     -0.8936692462427014
    0.0000000000000000      2.1890336521122729      1.2638391683121697
ITEM: ATOMS id type x y z
1      1          0.0000000000000000     0.0000000000000000     0.0000000000000000
ITEM: TIMESTEP energy, energy_weight, force_weight, nsims
60       -2013.7578869284420762    1    1   594
ITEM: NUMBER OF ATOMS
1         
ITEM: BOX BOUNDS xy xz yz pp pp pp
   -0.8945592336956124      3.5782369347824496      0.8945592336956127
    0.0000000000000000      3.7952934019152540     -0.8945592336956124
    0.0000000000000000      2.1912136672493818      1.2650978006384184
ITEM: ATOMS id type x y z
1      1          0.0000000000000000     0.0000000000000000     0.0000000000000000
ITEM: TIMESTEP energy, energy_weight, force_weight, nsims
61       -2013.7570343954014334    1    1   594
ITEM: NUMBER OF ATOMS
1         
ITEM: BOX BOUNDS xy xz yz pp pp pp