ITEM: TIMESTEP energy, energy_weight, force_weight, nsims
1        -110747.2972354113007896    1    1   398
ITEM: NUMBER OF ATOMS
55        
ITEM: BOX BOUNDS xy xz yz pp pp pp
   -4.2044205853224250      7.6907975483414992     -3.9610529877027085
   -0.4301539976762848      6.5922978621192403     -0.2433675976197169
    0.0000000000000000     13.9360789342820208     -0.4301539976762848
ITEM: ATOMS id type x y z
1      1         -0.0179600045195704     0.0071874087846897    -0.0188318234638953
2      1         -0.0791279930283815     1.4178316062939080     2.3822835029103322
3      1         -0.0422006160763249    -0.1068911570855944     4.6384440978575183
4      1         -0.2351169746140943     1.3092114836101916     6.9724530233394972
5      1         -0.0970848600147979    -0.2751552636428877     9.3861958308360780
6      1         -0.2171466253088742     1.1302760080952505    11.4705259661314614
7      1         -1.2424988598830877     2.1372209141390548     0.1237272959943426
8      1         -1.3380807178386436     3.6075066310896058     2.1770008793846776
9      1         -1.4719358902339605     2.0720315327791745     4.6528985989281555
10     1         -1.4452044112955713     3.3760362815234246     7.0117834253078275
11     1         -1.4396615539189586     1.8611444529984493     9.2229486021998976
12     1         -1.5497231194710515     3.2343739272365242    11.5578382878705241
13     1         -2.6999038325344258     4.3812593119492469     0.1220047966380654
14     1         -2.7042700678923954     5.8417939005300710     2.2042542753485597
15     1         -2.6964522973453553     4.2665131140848933     4.7939693451562126
16     1         -2.7954504587802904     5.7036389145982245     6.8814364918197013
17     1         -2.8737058927004533     4.1489370862482104     9.2757147778687710
18     1         -2.8739960704634795     5.4271713091070364    11.7482622640364482
19     1          2.6310135240177059     0.0064816228839551    -0.0913064019616289
20     1          2.4949237110810620     1.4478394833038892     2.3952133969455591
21     1          2.4203204810872045    -0.1663270836327386     4.7726694421130560
22     1          2.3907119270941726     1.2909281146148157     6.9861953907765937
23     1          2.4435171192572573    -0.3000038735632090     9.1853783270009668
24     1          2.3918540518389131     1.1298082112690171    11.4697274288085254
25     1          1.1721183371115320     2.2445339249021554    -0.0441745830058871
26     1          1.2495250063405003     3.5713738568553790     2.2817514166942083
27     1          1.1577365025615269     2.0836394626785850     4.6846505611720239
28     1          1.0588527109861614     3.4546545436557863     6.8904559221059687
29     1          1.1977674227072557     1.8502899766921828     9.2256480206894675
30     1          0.9774944369558102     3.3661661914373124    11.7305885287319906
31     1         -0.1012893372705319     4.4469199123295429     0.1006686597896796
32     1         -0.1108131096840203     5.7635732480372468     2.4215386500524176
33     1         -0.0844499036002727     4.1898745845853398     4.5289134854735282
34     1         -0.2853365707608156     5.6942809085983725     6.9298406747821435
35     1         -0.1950993814053704     4.1490787272290524     9.3834671465807453
36     1         -0.2824712204100944     5.5229449943136100    11.6089209852041346
37     1          5.1902714435265294     0.0270383442539243     0.1456794075316237
38     1          5.1352987603629705     1.3385286656477620     2.3726801509167186
39     1          5.0332593443327758    -0.1649806135811451     4.6775320120523922
40     1          5.0763856724957312     1.2133319682749015     6.9032269448413448
41     1          4.9646690414339281    -0.3042218352334872     9.1868374344653869
42     1          4.8582158314534665     1.1266666095561040    11.4994266066253754
43     1          3.7492585735144544     2.2069333370891724     0.0089023672232194
44     1          3.7728284902685449     3.5444841562572704     2.4524112457155329
45     1          3.6726908489587600     2.1130904758482112     4.7309991724916589
46     1          3.7345090273995942     3.4421094014279010     7.0977746067639211
47     1          3.6848130346826120     1.9078651395222614     9.3115054157877939
48     1          3.5464939145420162     3.3699847725719367    11.5002571969298568
49     1          2.4821605675323966     4.4074586769966784    -0.0454901488572834
50     1          2.4177607297683559     5.7901558253904666     2.3613807781168026
51     1          2.3616850095141428     4.2439163522616861     4.5513575405971896
52     1          2.2887080445405670     5.6273822875162800     6.8899653721274818
53     1          2.4170303147752619     4.1007274717185362     9.1700416721337898
54     1          2.2921761567792283     5.5618599887794531    11.6845911066015002
55     1          1.2935747518545198     0.6625468456839704     1.0357879179273639
ITEM: TIMESTEP energy, energy_weight, force_weight, nsims
2        -110750.2454097706213361    1    1   398
ITEM: NUMBER OF ATOMS
55        
ITEM: BOX BOUNDS xy xz yz pp pp pp
   -3.7518171496025312      7.8926502207952707     -3.7518171496025312
    0.0000000000000000      7.0576141861865436      0.2018526724537716
    0.0000000000000000     14.4515930939473485      0.3440324467299609
ITEM: ATOMS id type x y z
1      1          0.0360912078722370     0.0305352022712199    -0.0670987467351975
2      1          0.0259602861815347     1.5947449703105154     2.3599812812243366
3      1          0.0111694879729761     0.1798755060377361     4.9437266944374265
4      1          0.0671505151700894     1.7155861004268018     7.1807567119370779
5      1          0.1316924338801203     0.2505763792177013     9.5582143046899244
6      1          0.1088814434268764     1.8052914942010956    11.9291889127808286
7      1         -1.2607633289326827     2.2721727378673773     0.0094730192730825
8      1         -1.1429886913629248     3.7351139321667626     2.3921259597432041
9      1         -1.1341577834758378     2.3535906579973234     4.9463655553363814
10     1         -1.1589399126386004     3.8453696011752334     7.2169276042919188
11     1         -1.0427488600219714     2.4615794345565929     9.6334435176997779
12     1         -1.1091017107361942     4.0139710250608971    12.1988122851346024
13     1         -2.4914790981466037     4.5120319023496211    -0.0406899055153182
14     1         -2.4322529631269072     6.0908321614100167     2.5362748202180914
15     1         -2.5025243391271479     4.6469479796777797     4.8305345915290836
16     1         -2.3817725050577039     6.2099518297378298     7.1156985301467452
17     1         -2.3756334391325087     4.7531443503389674     9.6185786090433432
18     1         -2.4141642694117795     6.3172923582553118    11.9816698731014988
19     1          2.5267640222046777     0.0289090730435063    -0.1280743534764896
20     1          2.6046594162551302     1.4842065635596553     2.5054177786438947
21     1          2.7320266104613262     0.0739180167204611     4.9695993815535200
22     1          2.6441101554743676     1.5942796684959071     7.1835458694042096
23     1          2.5902661387351120     0.2931194302005991     9.6260847664963389
24     1          2.7818022523924526     1.7390380253709796    12.0334007957405902
25     1          1.3196978088102149     2.1883935002292776    -0.1285353592961865
26     1          1.2976848322319192     3.7596532211791063     2.3140281055042031
27     1          1.3622892895020491     2.3719584381802568     4.8372300146095100
28     1          1.4498970619764455     3.8339484468318541     7.2997829229774469
29     1          1.4496032860414849     2.5128480678580174     9.6762968267012610
30     1          1.4712558501586159     4.0186225021095892    12.0617100214523258
31     1          0.0490622772562308     4.4237317339691140     0.0872124740033535
32     1          0.1982490501265763     5.9993688437168542     2.2643782122706377
33     1          0.0849076064854485     4.6092646172397345     4.9164348608795070
34     1          0.2197115348102625     6.0908239598804466     7.0790059352812138
35     1          0.2797703480752294     4.6948952464736449     9.7363735443521069
36     1          0.2338006556398108     6.1989588697553790    11.9248201961885272
37     1          5.0711523910700924    -0.0377323937803851     0.0420743681337183
38     1          5.2852055322608917     1.5003665740042147     2.4854687995370099
39     1          5.2117152019795538     0.0583955685259224     4.8113905661575318
40     1          5.2472155386644097     1.6957702536622605     7.1692489083563675
41     1          5.2033308720021116     0.3010474867591028     9.5963881878475874
42     1          5.3335099573576707     1.8029722446625898    12.1310950102149846
43     1          3.8901256409270948     2.1631462815540656    -0.1097584043892207
44     1          3.8789466653370810     3.7880130430020804     2.5306560408231644
45     1          3.9168787886921907     2.3450256766836217     4.8424802783805410
46     1          3.9676040478498451     3.8804048083178078     7.1972026248779901
47     1          4.0062241340123066     2.5412989522801879     9.7175301121169113
48     1          4.0814448275857815     3.9824688349247683    12.0242717243831461
49     1          2.5984714384802863     4.4528078909744711    -0.0595911441228919
50     1          2.7037696898344930     6.0145918101368157     2.4953724762842917
51     1          2.6759019485248592     4.6575341954674085     4.8041199696719668
52     1          2.7396521869762900     6.1485091552432998     7.1720741948062345
53     1          2.8405200585216024     4.7165214727470195     9.7497311518488434
54     1          2.8631960157742125     6.2949474971511066    12.0529610269932483
55     1          1.3489864132553584     0.7244533680386035     1.0484500725320955
ITEM: TIMESTEP energy, energy_weight, force_weight, nsims
3        -110737.3325952123122988    1    1   398
ITEM: NUMBER OF ATOMS
55        
ITEM: BOX BOUNDS xy xz yz pp pp pp
   -3.8896432187650030      8.1751779844111461     -3.8896432187650030
    0.0000000000000000      7.3042436905785966      0.2018527028285464
    0.0000000000000000     14.4516122062420536      0.3440330392497280
ITEM: ATOMS id type x y z
1      1          0.0335716350401178     0.1274481940718790     0.0899540601777537
2      1          0.1490599908832237     1.4219339280328225     2.1339106067614955
3      1          0.2009330141064003     0.1267722399975331     5.2168123419478460
4      1          0.0201236331136852     1.6041763370441273     7.4487005439840015
5      1          0.1965631496190018     0.2130621200843963     9.6659810564020852
6      1          0.0878854842175117     1.8759673933016474    11.9471521463839689
7      1         -1.1360271091253107     2.4267054906425272     0.1378336965782542
8      1         -1.3719513456543950     3.9736941348008967     2.7184002817980728
9      1         -1.3117611778465330     2.2553958804510179     4.7895880012620369
10     1         -1.0708151974491404     4.0876554690747504     7.3024010929753311
11     1         -1.1759148735584688     2.5799356230022492     9.7848426764759857
12     1         -0.8196186842521185     3.9757513509206288    11.8875565879678664
13     1         -2.4419739012475588     4.7114840048182582     0.0900422150122117
14     1         -2.5197327673989403     6.2815904424136644     2.0688219905458021
15     1         -2.4858039931438158     4.8485322934499289     4.8327116120854630
16     1         -2.1884814359145115     6.2361674804384037     6.9432525167482435
17     1         -2.3197076940980792     4.8513847392855665     9.8678050466683587
18     1         -2.2804306497360867     6.5914688124602456    12.1219819702102019
19     1          2.6717233972558621     0.1827232093921211    -0.3412762674116267
20     1          2.4324133433979083     1.7482149492859773     2.4547436235461721
21     1          2.9159065186436437    -0.0234298063554339     4.7735149181662537
22     1          2.6461352095604176     1.6923002162986767     7.6281577740386730
23     1          2.5402872877496065     0.4191640661229986     9.3386838334775568
24     1          2.6661235289143845     2.0366810541930400    12.2185172945866771
25     1          1.3800782327509209     2.1984878676043387    -0.2085989060685597
26     1          1.3935481439910591     3.7806610600307793     2.4885950799780732
27     1          1.5462457337030489     2.4098148119111080     5.1878469756028753
28     1          1.3395459490496349     3.9598894951234125     7.3203456598518217
29     1          1.5339305172742030     2.6048250548433840     9.9632666162579131
30     1          1.6057602651990914     4.2803676403897155    11.9513185461830265
31     1          0.1321006183696952     4.7871169799215272    -0.0711207191505790
32     1          0.1822128984890034     6.1776157875723134     2.8209142381442711
33     1          0.2882200282847257     4.7453506918602333     4.5550166577364184
34     1          0.2530884074011650     6.4721969365072631     7.1873705952973053
35     1          0.3083274843761555     4.6670474462243963     9.3897616116592992
36     1          0.1034720423767486     6.3726521970700798    12.2333128551634278
37     1          5.5383399063375096    -0.1810576236111215    -0.1092715302138374
38     1          5.2660169025405263     1.6743906308129235     2.0816391254115181
39     1          5.3670185983832051     0.2193071283153163     4.9826326371130172
40     1          5.3922034243966666     1.7772386775534399     7.0606111691526943
41     1          5.3366311553396599     0.0540015739732718     9.6868462941054574
42     1          5.4457857449855629     1.6385855883226599    12.2942148393229740
43     1          4.0877780865482292     2.4907385055860072     0.0582399971911555
44     1          4.1538133537344049     3.9687188123196786     2.6837178576643126
45     1          4.0074119300683320     2.3451551533111337     4.7417430487308305
46     1          4.3764261083556422     3.9939330402739008     7.5541178292224336
47     1          4.1990778160654054     2.3756801630874866     9.8805773815362379
48     1          4.4311004541558514     4.0362060067260650    12.4136689754973286
49     1          2.7029527703531731     4.6823649316626259     0.3645086791943815
50     1          2.9533022693534021     6.2626685334197632     2.1708070178852519
51     1          2.9323556530202142     4.8787688594653895     4.6945657606835534
52     1          3.0783133395362254     6.2814787905460099     7.5862553244466753
53     1          2.9831133588248369     4.8116009500718491     9.7117391961307113
54     1          2.6383023503726455     6.6048705867059452    12.2843617301207573
55     1          1.5340872715479916     0.6704169545912417     1.3138871108263646
ITEM: TIMESTEP energy, energy_weight, force_weight, nsims
4        -110746.6173869788035518    1    1   398
ITEM: NUMBER OF ATOMS
55        
ITEM: BOX BOUNDS xy xz yz pp pp pp
   -4.2044205853224250      7.6907975483414992     -3.9610529877027085
   -0.4301539976762848      6.5922978621192403     -0.2433675976197169
    0.0000000000000000     13.9360789342820208     -0.4301539976762848
ITEM: ATOMS id type x y z
1      1         -0.0929218790971120     0.0161419448757114     0.1396562342162270
2      1         -0.1567616801422769     1.4282338508653150     2.2975493557741102
3      1         -0.1045294613593991    -0.1940269902125560     4.7187326358137041
4      1         -0.0518012466673824     1.2345798272903579     6.8287455709770750
5      1         -0.1993937819916972    -0.2624477141248536     9.3001168520826969
6      1         -0.2925137043815698     1.0911344589581407    11.5585978041724431
7      1         -1.2867097032966728     2.1386599767386598    -0.0272701192586031
8      1         -1.4135056967715116     3.5601801002954092     2.2226345698549843
9      1         -1.4637664446793242     2.0230222956888899     4.5466694436436974
10     1         -1.4162010105793732     3.3878528230404292     6.9717854851585450
11     1         -1.4379982998448242     1.8897907919293995     9.1826412810982756
12     1         -1.5943215864934637     3.3013414128434904    11.6542801349194356
13     1         -2.6460799181525414     4.3951855593409466     0.0802927187798659
14     1         -2.7594372855853782     5.8093307311061304     2.4576219456290604
15     1         -2.6722337555981097     4.2905168478520146     4.5405013351073844
16     1         -2.8138427125061281     5.5836583541036111     6.8991018654767968
17     1         -2.8113874648918320     4.0463785294950672     9.3036998179767014
18     1         -2.9134591805489922     5.5687113951037439    11.7664753255956605
19     1          2.5333921736020795    -0.0196621678997336    -0.1499954111775708
20     1          2.4760166318034229     1.4357467560579587     2.2754550962316999
21     1          2.4580762219978265    -0.2105952681262169     4.5771267441545707
22     1          2.4015709133241132     1.1932299892960374     7.1060205846693369
23     1          2.4080386986890119    -0.2212109374455072     9.2971275631512942
24     1          2.2966788415582098     1.1073558260025784    11.5558523966223898
25     1          1.2450620304490050     2.1772700922143224     0.0645993002919709
26     1          1.1615057160659976     3.5452397388946699     2.2970309336377555
27     1          1.1214874251358156     2.0502362680746478     4.6102625590366140
28     1          1.0719912240913649     3.4402093380476093     7.0431256668310285
29     1          1.1113009018367397     1.9371906415984408     9.3830643938995451
30     1          1.0381853575649849     3.3228286130241083    11.4708520703785233
31     1         -0.1724190684511136     4.4239636311498041    -0.0800195716327539
32     1         -0.1440803007324746     5.7788443728617231     2.2334183077343317
33     1         -0.1971661055259998     4.1867129665581597     4.5700681201743576
34     1         -0.1715680585715456     5.6827239405437719     6.8394554476380707
35     1         -0.2224053367965192     4.0764317525794782     9.3363046682513477
36     1         -0.3029312951903998     5.4483411166776916    11.4892379393165207
37     1          5.0752129958100856     0.0106646257148093    -0.0527619948451917
38     1          5.0274613769257934     1.4561484049498430     2.2804804462954018
39     1          4.9599022727651203    -0.1203097923352411     4.7789992091650069
40     1          5.0345442871972184     1.2677607768667980     6.8913255334314689
41     1          4.9417103616774742    -0.2466008438637136     9.2295626652621081
42     1          4.8583527689894019     1.1150388643175786    11.4863211179955744
43     1          3.7671030696072507     2.1789518062883166    -0.0105161651638092
44     1          3.7904737140745182     3.5213621652950824     2.3095552877759946
45     1          3.7554407114283053     2.0226315670789834     4.6579364914628991
46     1          3.7307453054768116     3.4276340346267089     7.0742811648965098
47     1          3.6582563383228561     1.8703425157881577     9.3752128070279710
48     1          3.5219446382122932     3.2897218742204593    11.6523137541818080
49     1          2.5730605086394136     4.3744689397327736    -0.0039313678673610
50     1          2.4841746599753307     5.7336724955141323     2.3085588581321934
51     1          2.4291290036974957     4.2951695896054503     4.5234825955128386
52     1          2.3001325380751947     5.7171910294912500     6.9464385447928736
53     1          2.2210416001723079     4.1786472590622648     9.1528013488841893
54     1          2.3053736601797206     5.4944408468592547    11.5465472767179680
55     1          1.2255244527912261     0.6384745210790038     1.2100627658242409
ITEM: TIMESTEP energy, energy_weight, force_weight, nsims
5        -110744.8514949912932934    1    1   398
ITEM: NUMBER OF ATOMS
55        
ITEM: BOX BOUNDS xy xz yz pp pp pp
   -4.1332960895953628      7.6907975483414992     -3.9378037067140710
   -0.3441170455029891      6.6062105148841885     -0.1954923828812916
    0.0000000000000000     13.9961594447296651     -0.3441170455029891
ITEM: ATOMS id type x y z
1      1         -0.0295446252659030    -0.0658293238786737    -0.0602506671776723
2      1          0.0461165504887733     1.3485898196755433     2.4351581910058471
3      1         -0.0094393936095716    -0.1547727855346418     4.5552404390557184
4      1         -0.0847817350350679     1.3315951820499408     7.0925146093703120
5      1         -0.0963220786893756    -0.2555815382652846     9.2415269189924398
6      1         -0.1264476963455095     1.1713128671514121    11.5609116783033716
7      1         -1.3187279546904240     2.2231908975852241    -0.1093939822200071
8      1         -1.2902397994866419     3.5386303032438327     2.4016611826067757
9      1         -1.3892290242048282     2.1112436593125143     4.7807661546524249
10     1         -1.3916069644897484     3.5674554840717243     6.9101432521895410
11     1         -1.3915933244780638     1.9520107752613847     9.2779253312444041
12     1         -1.4181284406260199     3.3750152036725543    11.6192182789341700
13     1         -2.6857576843841442     4.4302561205484157    -0.0362150625632380
14     1         -2.6660098804035228     5.8231318032899670     2.2479189695701982
15     1         -2.6948317193330045     4.2634388923168212     4.5432345334840285
16     1         -2.6555956337295852     5.6648335092329951     6.9272591555745002
17     1         -2.8204945499618304     4.1544965444366708     9.2851683437570500
18     1         -2.7845807707309591     5.5530430164837021    11.8065568731018775
19     1          2.6102042280872024     0.0128795219907591    -0.0880526382986833
20     1          2.4517012963154090     1.4158212294198569     2.3339953501552855
21     1          2.5117286116306108    -0.0558918743936822     4.5932680042670482
22     1          2.4613166941691156     1.2320913406104859     7.0740732696859370
23     1          2.5137934691585282    -0.2433400814473322     9.3749802992979365
24     1          2.4409149862995814     1.1289070664353504    11.5140735307215838
25     1          1.1965239268936141     2.1749512151203763    -0.0791468820440018
26     1          1.1727605653115143     3.5401941652266333     2.4436776532598543
27     1          1.1857635007045395     2.1386949275242810     4.6459705426561779
28     1          1.1012536207910508     3.4535450654806534     6.9958907230276770
29     1          1.0832568969215919     2.0378562836783605     9.2962589005010550
30     1          1.1391246038691907     3.3353776955175234    11.8150511422688851
31     1         -0.0521872154042322     4.3458955611724459    -0.0645656831344824
32     1         -0.0629888164021797     5.8580805831324003     2.4160688291391801
33     1         -0.0832247780664167     4.2276216458779592     4.7964376543826885
34     1         -0.0982781982503198     5.6559926408017347     6.8843399326372374
35     1         -0.1685302111003480     4.1344290042470382     9.3599932117645199
36     1         -0.2053436744816995     5.5243371094478437    11.5509744050976142
37     1          5.2130182681468922    -0.0033093621211692    -0.0856732911930792
38     1          4.9629505421514377     1.4768115002263686     2.2695192424412491
39     1          5.0625062813134729    -0.1021082079362506     4.5359537313408804
40     1          4.9642773449302275     1.2504021734285253     6.9105309458061592
41     1          4.9830104604123040    -0.2853958691063848     9.3521679590189724
42     1          4.9415392931472537     1.1127469452786840    11.7158617599000294
43     1          3.8874681518290002     2.1450401072698373     0.1362973999046664
44     1          3.7188491817617342     3.6715712891555374     2.2048877773573765
45     1          3.7381607300981652     2.1558403736606153     4.6822835783355297
46     1          3.7716891775054986     3.4325654933720364     6.9966255213985251
47     1          3.7001858857939331     2.0173340276431810     9.2303243929728787
48     1          3.6849681689416443     3.3142825295773646    11.7270362936007011
49     1          2.4501490923219396     4.4628831585832573     0.0975014455398203
50     1          2.4048260143152351     5.7842217256217525     2.4181150676499996
51     1          2.4321177995280316     4.3543015821768529     4.5775111279641711
52     1          2.3035551701396035     5.7295356690477517     6.9145926312770198
53     1          2.2673537330162961     4.2129342017535381     9.4487302622600513
54     1          2.3836334645224890     5.5247556295145417    11.6008833100615760
55     1          1.2012317154543624     0.6571740251863043     1.3089572212856746
ITEM: TIMESTEP energy, energy_weight, force_weight, nsims
6        -110745.6350782999652438    1    1   398
ITEM: NUMBER OF ATOMS
55        
ITEM: BOX BOUNDS xy xz yz pp pp pp
   -4.0617716723957873      7.6907975483414992     -3.9145544257254352
   -0.2580800933296941      6.6200154964834619     -0.1472172466703524
    0.0000000000000000     14.0555324018028607     -0.2580800933296941
ITEM: ATOMS id type x y z
1      1         -0.0331080825305679     0.0422434279952787     0.0168849110742858
2      1         -0.0904096392828794     1.4869467064280835     2.3591915970245663
3      1         -0.0558501239378421    -0.0750799323291209     4.5959131235725037
4      1          0.0159062335155036     1.2722786610889494     6.9524974193365354
5      1         -0.0436179992859125    -0.1558827484453611     9.4122169952052772
6      1         -0.1878127640102435     1.3039770929554351    11.8241055943106819
7      1         -1.3847165482745649     2.2498113637217827     0.0007702431756188
8      1         -1.2992886089033346     3.7041219607893225     2.2502190543133889
9      1         -1.4024678739974252     2.1121863580936839     4.7848391567980970
10     1         -1.4786327254632543     3.5759416272104891     7.1418423074277015
11     1         -1.4229661828947997     2.1009991714159773     9.4382042690629699
12     1         -1.5248217618319744     3.5081501765012102    11.7654532631511994
13     1         -2.5687055503578748     4.4355013697510168    -0.0000520054698867
14     1         -2.6561072416224292     5.8197438983012608     2.2211578355194215
15     1         -2.6106648497215668     4.3195972720264040     4.6872136453948947
16     1         -2.7144316390602343     5.7760820054649349     6.9732504129277979
17     1         -2.7374719690809881     4.2332120099409050     9.4699037112887563
18     1         -2.7649768266147174     5.6746853107071340    11.8462852244407273
19     1          2.5842614999341746    -0.0252640073832426     0.1020347319176477
20     1          2.4704458405041465     1.3900558019294791     2.2091909552325264
21     1          2.5354191242632851    -0.1426495269768336     4.6158017019210549
22     1          2.5195264083519651     1.2968064499255902     6.9744198332236280
23     1          2.5735343892279787    -0.2156787811268962     9.2205951108650179
24     1          2.4206398046749302     1.2110451277572638    11.5614273714663494
25     1          1.2341410410692177     2.2394856018501348    -0.0737606229381811
26     1          1.2362211922318112     3.6188788328790196     2.4298304862163067
27     1          1.1967925652506755     2.0499593223964805     4.7993444662367573
28     1          1.2931186152510257     3.4787061996914823     7.1206774867370672
29     1          1.1362803835140554     1.9951451049462594     9.3001550464721827
30     1          1.1527914986105130     3.5095816626485070    11.7495044505348734
31     1         -0.1134869118727675     4.4786075594406158    -0.0462708126667350
32     1         -0.0352128346410468     5.8443181416669869     2.4171060127329547
33     1          0.0006466694832891     4.2913319519119488     4.6890436757136102
34     1         -0.1312097913197219     5.7923416436845496     6.9982959661145703
35     1         -0.2238964498425641     4.2756519350294750     9.3122582654233756
36     1         -0.1709407473071304     5.6077380177974927    11.6286859051154554
37     1          5.0325452258228243     0.0252330755107866     0.0390701634172914
38     1          5.1015788433905387     1.4675768953419657     2.4688120997794671
39     1          5.0770255429063740    -0.1564432834733140     4.7593480432341870
40     1          5.1438675006670289     1.2962595072809824     7.0773246025969465
41     1          5.0885739127569876    -0.2311346018649892     9.2514610600193770
42     1          4.9876713900279945     1.3280049280024033    11.6330656090118580
43     1          3.8077939856549139     2.2153691943280922     0.0997858467333592
44     1          3.8215219790806052     3.6483056612036693     2.2801601494357095
45     1          3.7296270216230458     2.1254253433735220     4.5757476512356376
46     1          3.8316743262627173     3.4839487755636265     7.1470948598862565
47     1          3.7129321600988425     2.0314225262733632     9.3567018588778765
48     1          3.6981134274077299     3.4693232115693609    11.5626094417413405
49     1          2.5118099215786587     4.4610978817407192     0.0054521410186593
50     1          2.5351398537923795     5.8016508863248255     2.3050468751063411
51     1          2.4207836669696001     4.3477762843910890     4.8211038359479881
52     1          2.4428003215180087     5.8046325623057022     7.0113366890769635
53     1          2.4660514726778846     4.2457746677517862     9.4898133729359095
54     1          2.3976434469614336     5.6927399656191042    11.7289721288023188
55     1          1.2481617171922270     0.7616398530890567     1.0261044652482554
ITEM: TIMESTEP energy, energy_weight, force_weight, nsims
7        -110744.3990128758014180    1    1   398