ITEM: TIMESTEP energy, energy_weight, force_weight, nsims
1        -108739.8973184004426003    1    1   348
ITEM: NUMBER OF ATOMS
54        
ITEM: BOX BOUNDS xy xz yz pp pp pp
   -0.6212294843247673      8.9003909041056986     -0.3106147421623833
   -0.3216512268834751      8.8949705660450977     -0.3106147421623840
    0.0000000000000000      8.8891497103938146     -0.3216512268834751
ITEM: ATOMS id type x y z
1      1         -0.0730867913475686    -0.0244502065946740    -0.0071122086832861
2      1          1.3788672283249057     1.4857174502630937     1.5018369551255428
3      1         -0.0273715382135596    -0.1944092514286778     2.9642576426052574
4      1          1.3012437274756776     1.4058805771696210     4.3708438029240462
5      1         -0.1311889362295232    -0.1572033796295710     5.9335580998412203
6      1          1.1146389826994001     1.2927860167531626     7.4536738135162466
7      1         -0.1755390205675314     2.9648090613012292    -0.0654303642732958
8      1          1.3141002336711549     4.4097231265413557     1.5550011817134659
9      1         -0.2667110289624729     2.9407858502837505     3.0462404925542770
10     1          1.2565775240074954     4.2064537245802747     4.4631834012006459
11     1         -0.2839740243976008     2.6640734768766232     5.9138339655488270
12     1          1.0682762866248554     4.1945234896867030     7.4331309885355257
13     1         -0.2388285205593931     5.8693271454008702    -0.0462742466473971
14     1          1.1982667843024009     7.2732543900603206     1.4716902927977129
15     1         -0.2782043429500803     5.8396969223320410     2.9037340889720991
16     1          1.0355396592344097     7.2696096149312428     4.5010093999632845
17     1         -0.4655960909341448     5.6434673004660114     5.9454135588099728
18     1          0.9591421880368177     7.1563629463990042     7.4798816936074006
19     1          2.9516988063682286     0.0611715028555208    -0.0323965061195303
20     1          4.4148921471815452     1.4238122893815601     1.5228224597618405
21     1          2.8713376456199047    -0.0604737108646797     2.9959572393874923
22     1          4.2971733706181956     1.3857056064717570     4.5257683486516438
23     1          2.7885037104976860    -0.2672365167398036     5.9077626762966284
24     1          4.0704901183948374     1.1573811206170133     7.3257571713537368
25     1          2.8745397602319165     2.9064856247185693     0.0715905450225987
26     1          4.2428712033435145     4.4414286449076368     1.5415714543310031
27     1          2.7543949921986512     2.8901414969064274     2.9643314225478532
28     1          4.1558113542572181     4.3430247273506080     4.4434112654998170
29     1          2.6311537146993804     2.7666365627624883     5.9774873887950157
30     1          4.0607017995383323     4.1499677508711548     7.3742305936394850
31     1          2.8195540443927931     5.9848233694295780     0.0707265196707484
32     1          4.1654752397443646     7.3929484965532044     1.4211296981599641
33     1          2.7087967890978173     5.8085536273954066     2.9824768438516802
34     1          4.0830446069671371     7.2242679604422211     4.5096496534817874
35     1          2.6221117522426094     5.7262365067735583     5.9757308928122423
36     1          3.9128036383502045     7.1583325175611225     7.3756964144267299
37     1          5.9445242984601538    -0.0590569448364551    -0.0241731537224449
38     1          7.2901184223393454     1.4154504519431881     1.4249520325354335
39     1          5.8696081071681379    -0.0462135192962788     3.0233233756859113
40     1          7.2962539739456300     1.4094867887998053     4.3709860293194120
41     1          5.6403954203877849    -0.2178336111292385     5.9798554582778651
42     1          7.1792466156321737     1.3008317601328712     7.4695471681540964
43     1          5.7818610580821890     2.9323066096188835     0.0715967674273959
44     1          7.1249830637091733     4.4731059044607022     1.4759481955089917
45     1          5.6952816054980113     2.7826589652288516     2.9913268813033480
46     1          7.0709824344921461     4.2051590595686319     4.5020600974590534
47     1          5.6838902907164375     2.7427769911734230     5.8884181086968699
48     1          6.9582275426104196     4.2255467301439493     7.4464967140400740
49     1          5.7162421115894659     5.8811711727262361    -0.0370908660815892
50     1          7.1788659124637570     7.3002297513655678     1.5379997939773669
51     1          5.6374831147843718     5.8170248732823646     2.9194572169798430
52     1          7.0489828619339781     7.2995682486368363     4.4353648071819682
53     1          5.4813697083631938     5.6600660442377260     5.8744248092227682
54     1          6.9848576617372027     7.1364361251253126     7.3253669376814505
ITEM: TIMESTEP energy, energy_weight, force_weight, nsims
2        -108739.8703516347741242    1    1   348
ITEM: NUMBER OF ATOMS
54        
ITEM: BOX BOUNDS xy xz yz pp pp pp
    0.0000000000000000      9.3973887321909615      0.2484989140426310
    0.0000000000000000      9.1385742650904707      0.2484989140426314
    0.0000000000000000      8.8936355074094831      0.2416545134373740
ITEM: ATOMS id type x y z
1      1         -0.0607780408378960     0.0332752214695535     0.0151547549046258
2      1          1.6440947222790787     1.4412445809294832     1.4811024785899889
3      1          0.1127500972180063     0.0340660466565013     2.9109135824816463
4      1          1.5983426513207855     1.6889524146394406     4.5061943324428588
5      1          0.2281143661285211     0.1952728610601800     5.8552992515589786
6      1          1.7296101711673824     1.6692010420695658     7.4810576010405327
7      1          0.1669348079368306     2.9039841019903800     0.0710254625257229
8      1          1.5834497330999957     4.5030839237864226     1.3933827728533079
9      1          0.0989141949748319     3.0937114188263601     2.9718821219755904
10     1          1.7387324328672269     4.5022383793157204     4.5150301593194699
11     1          0.2387520812244978     3.0753017876500368     5.9409529657672886
12     1          1.7364486002511712     4.6421488592932540     7.3260273043295738
13     1          0.1373835647945605     5.8738147395816913     0.0359454066302969
14     1          1.8206777996067487     7.4047196070825336     1.5294829663867457
15     1          0.2168999205122086     6.0963538101911681     3.0061822060370167
16     1          1.7646260172895627     7.5793283661293609     4.4901937928014792
17     1          0.2978050784162828     6.0721861418517307     5.9881230297714865
18     1          1.9043976185543998     7.5861804515288238     7.3516952257675081
19     1          3.0144405500922011    -0.0152046207117661     0.0178530839175738
20     1          4.5472840169310249     1.5552865009919643     1.5000396966759160
21     1          2.9852809430185405     0.1218633111177825     3.0027839479096352
22     1          4.5449966225921390     1.6608598036789917     4.4859372988476336
23     1          3.2119598639992817     0.1170146714700581     5.9748457213224748
24     1          4.7786363236247098     1.6605013039010044     7.4905737910334613
25     1          3.1350463182335360     2.9356028978501083    -0.0010743511692951
26     1          4.6292954819607752     4.5552806116810709     1.4010535334784484
27     1          3.1355654584541126     3.0101724104272169     3.0011039401622859
28     1          4.7181842991926146     4.5403481179691410     4.4074927655816296
29     1          3.3012264828881239     3.1245548747401206     5.8797131703903682
30     1          4.7379915823493262     4.6151990341894438     7.3233689966764093
31     1          3.0654351808518947     5.9989293112220770     0.0348924001862196
32     1          4.7600884561765850     7.3730573944698072     1.4859068204910917
33     1          3.1449009860517703     5.9511802256959827     2.8913555886373019
34     1          4.8326554864318885     7.4948484111193450     4.5237832753858633
35     1          3.2918260848269640     6.1586373551374649     5.8403134757289932
36     1          4.9491270590270489     7.6623442395178873     7.3532969695223933
37     1          5.8542104047787182    -0.0787035337494942     0.0740475198711406
38     1          7.5787661869987408     1.6050414140980667     1.5109023830846660
39     1          6.0564849345215102     0.0375449684134095     3.0526354430193177
40     1          7.5990530534074896     1.5153348290790147     4.4598140232717194
41     1          6.0238447064033886     0.0763101886900150     5.8423590118956978
42     1          7.6950379048051030     1.6656882301197644     7.3467654836057514
43     1          5.9415001020205969     2.8887661156167761    -0.0334516312340193
44     1          7.5009086779494396     4.4349230712642091     1.4199133769354610
45     1          6.1605860271786685     2.9694002651702052     2.8888182344270379
46     1          7.6464303377385612     4.6303365484450127     4.3652079755616509
47     1          6.2631331775892694     3.0602297068664388     6.0027468346363202
48     1          7.7588558095038564     4.6466560618887840     7.4728496648307452
49     1          6.1841772475878525     5.9509563542045134    -0.0261695224805524
50     1          7.6254855176221632     7.4427858115155967     1.5590445214498243
51     1          6.1373322350428943     6.0089001359593093     2.8943118330799646
52     1          7.7231027487736990     7.5141037084338231     4.4591692346974314
53     1          6.2922873493722129     6.1220054303495530     6.0100974243831935
54     1          7.9067525365408473     7.5559370500565617     7.4525739546009531
ITEM: TIMESTEP energy, energy_weight, force_weight, nsims
3        -108736.1702404123207089    1    1   348
ITEM: NUMBER OF ATOMS
54        
ITEM: BOX BOUNDS xy xz yz pp pp pp
    0.0000000000000000      9.9205243603057109      0.2623323989806555
    0.0000000000000000      9.6473021600922948      0.2623323989806560
    0.0000000000000000      9.3887281049365825      0.2551069829772130
ITEM: ATOMS id type x y z
1      1          0.0134154998363709     0.1958051424529058    -0.0998810450715573
2      1          1.8656086779246002     1.8441033002069103     1.5683119201048166
3      1         -0.0376672880276150     0.2063680562640385     2.9445182578360942
4      1          1.9670385701010420     1.6153120118285038     4.4875219224612435
5      1          0.1591465540732182     0.3316279242221324     6.4107437257704420
6      1          1.8672877710210394     1.9665783637766898     7.8627424488744415
7      1         -0.0946425618834367     3.3982117841209081     0.2075716341808009
8      1          1.9316214780641277     4.5236239956378252     1.7963697590105892
9      1          0.2153910165441097     3.4385421025372223     2.8990420755142132
10     1          2.0621805927274144     4.9624360302886927     4.5320845815385153
11     1          0.3372978198317042     3.1033855398109633     6.2466109199127500
12     1          1.6799075019594967     4.7238356969366038     7.7730772788538651
13     1          0.2097009965931348     6.4404859244386046     0.0862899222668511
14     1          2.0344341774585777     7.6994878264792037     1.8054298816318530
15     1          0.2171546283288200     6.4545366678091058     3.2315720475348568
16     1          1.8148987146110394     7.8577856299169522     4.7050099312664786
17     1          0.1913391771301993     6.5472401562927143     6.4173195909351399
18     1          1.9850647808106092     8.2523756125302015     7.9972463065785728
19     1          3.1718219985336322     0.2047380678464277    -0.1258399394088965
20     1          4.6330135839040612     1.5164922236759211     1.3543803615057317
21     1          2.9836069187753407    -0.1205863192185408     3.0078489843951335
22     1          4.7540850005662980     1.9193829154672646     4.6599205645425208
23     1          3.2547435999440895     0.1489076917614852     6.2348102275576567
24     1          5.1333941904363396     1.6887446037769880     7.5722674066542393
25     1          3.1447450913264277     3.0525454397430503    -0.2293703830948427
26     1          4.7105034113904498     4.8492808709671760     1.5076513478188214
27     1          3.1930723584632394     3.2367924696305890     3.2765525050127979
28     1          5.1664692253434517     4.6584542325950942     4.8179600858601077
29     1          3.5793157668048310     3.1291631834641107     6.2496462957090770
30     1          5.1456953858274073     5.0128419047978889     7.6209827001723243
31     1          3.4181553347107720     6.4432055047786712    -0.2495007550246372
32     1          4.8147255681183045     7.6342418804626906     1.7411968983019295
33     1          3.4300945715999145     6.1785769205709560     2.9270730621443115
34     1          5.2254420993820059     8.1578251876210555     4.7507846751420972
35     1          3.4213694082620187     6.1889517457793577     6.1665203748135893
36     1          5.1926488853147790     7.8724511333845237     7.9476146731974469
37     1          6.3528019859375808     0.2513860836398552    -0.0715092476112495
38     1          7.7310436255207620     1.5052691004550354     1.6837472710278223
39     1          6.3069262393481438     0.2044619419262856     3.2422207429514760
40     1          7.9575182444016335     1.8144676248697134     4.8735479283510061
41     1          6.5739588199592580     0.2972529135923928     6.4206798167238954
42     1          8.2570944304788476     1.8162652056041564     7.6641079449767293
43     1          6.4057818650463920     2.9750417270676142     0.1630155472132034
44     1          8.1031293974732694     4.9006441231560354     1.3886802018914963
45     1          6.4695152548369981     3.4040053196669997     3.0847389120833224
46     1          7.8456783115493769     5.0588235383339084     4.7140794426158479
47     1          6.3705159385591310     3.2894846872358996     6.5003037420362428
48     1          8.4318236397723254     5.0655424694104756     7.5996214659879717
49     1          6.3397346337419149     6.1516699856706012     0.0797112404837221
50     1          8.2654518721200638     7.7763748618906803     1.7297191781936443
51     1          6.6286763529491495     6.0896694293985485     3.2983127601416089
52     1          8.1085969127961128     8.1352041275374063     4.4810662330162900
53     1          6.6594813011315344     6.3914112203210802     6.4747955066479399
54     1          8.3464520314498838     8.0267822155702202     8.0605920551025800
ITEM: TIMESTEP energy, energy_weight, force_weight, nsims
4        -108739.9298141136532649    1    1   348
ITEM: NUMBER OF ATOMS
54        
ITEM: BOX BOUNDS xy xz yz pp pp pp
   -0.6212294843247673      8.9003909041056986     -0.3106147421623833
   -0.3216512268834751      8.8949705660450977     -0.3106147421623840
    0.0000000000000000      8.8891497103938146     -0.3216512268834751
ITEM: ATOMS id type x y z
1      1         -0.0744228783209989    -0.0428891253590343     0.0605279982080136
2      1          1.2929332287888278     1.3742490338273745     1.5597826553426868
3      1         -0.1135875624149374    -0.1586429379105490     2.9661359199390631
4      1          1.2919675504160990     1.2585517597149614     4.5138035531414546
5      1         -0.2046092891949382    -0.1721501201714107     5.9906522195161092
6      1          1.1189062058448509     1.2108128580072390     7.3314453382534186
7      1         -0.0901414607406813     2.8966540791448718    -0.0079344550314975
8      1          1.3512126730435605     4.3340044692731698     1.5625294026031986
9      1         -0.1755111913423650     2.8794171909308899     2.9170500352382689
10     1          1.2452426948403121     4.3690669981823929     4.4366137327162782
11     1         -0.2383595024576341     2.7284331612387853     5.9726801366316353
12     1          1.0931148672913122     4.1882841062313867     7.4266783547607513
13     1         -0.2318493010221344     5.9812901788466002    -0.0418812288605205
14     1          1.2196751581816354     7.2905874392546819     1.5238696015977249
15     1         -0.3585000705593087     5.7706607776035490     3.0005031505493878
16     1          0.9827157185381422     7.2489163350547621     4.4123667990512372
17     1         -0.4862803495960253     5.6796501743621022     5.8758239613871837
18     1          1.0440949647386562     7.1561264164520662     7.4785029864873174
19     1          2.9727971824706079     0.0423990880754253    -0.0403727401546666
20     1          4.2902827471019735     1.5101126671258451     1.4836497548180769
21     1          2.8302283149482204    -0.1308796912130193     2.9142357304399580
22     1          4.1922271179391606     1.3836789140035159     4.4072448709881087
23     1          2.8288338958835224    -0.1427772676174340     5.9575188028855877
24     1          4.1675992358233884     1.2116242266839643     7.4937816570095430
25     1          2.8702702183931188     3.0229191829725144    -0.0489649922647333
26     1          4.1744337339347197     4.4574400820986355     1.4121329897380746
27     1          2.8348993976698869     2.8394228116714890     2.9729476753621378
28     1          4.1280973506189378     4.3240717013142174     4.4550036056371409
29     1          2.7384273411589151     2.8220513847712239     5.8601310564884539
30     1          4.0443899894238289     4.2373993169841473     7.4708565399064373
31     1          2.7188731554776546     5.9058391122092120     0.0619147055628350
32     1          4.2045595798440649     7.4041264667165700     1.5146986658415116
33     1          2.6381454715150650     5.8892810753436606     3.0439497586739090
34     1          4.0007276264516820     7.2741041436460359     4.4940554181448436
35     1          2.5677462057248679     5.7051311803123106     5.9727628057239412
36     1          3.8721981877863842     7.0673017020534976     7.3410269527262511
37     1          5.9156995126793337     0.0086244125102076     0.0117790122812428
38     1          7.3193024358388730     1.5053572899287166     1.4528764074356646
39     1          5.9151755348515405    -0.1735465723577442     2.9663848161309545
40     1          7.1341906010137324     1.3021337179619434     4.4376190955485244
41     1          5.6551130464074530    -0.2472070459725993     5.9747797537932303
42     1          7.1293896961116126     1.2279222521017747     7.3507445711896544
43     1          5.7669643236710533     2.9510318669612094    -0.0048908101706587
44     1          7.2901141748360549     4.3688994843105737     1.5656254934473286
45     1          5.6937569336110050     2.9068510614914889     2.9442623892466973
46     1          7.1260084943222139     4.3542953479727995     4.4911797782135316
47     1          5.6440064578864613     2.7207157842742511     5.8967241301862616
48     1          7.0594231374957337     4.2150572215296531     7.4381542470368691
49     1          5.7566774601804074     5.8589286828822980    -0.0524130934373951
50     1          7.1737825976820790     7.2810137046752912     1.5481343135621868
51     1          5.6178492287557722     5.8011984797378799     2.9416676464462332
52     1          6.9615439153400445     7.3218229859331023     4.4423347894698884
53     1          5.4948365405354549     5.6515264771656604     6.0143818046680053
54     1          6.9524499987302431     7.1844560994448807     7.3511650279709553
ITEM: TIMESTEP energy, energy_weight, force_weight, nsims
5        -108740.0201468330051284    1    1   348
ITEM: NUMBER OF ATOMS
54        
ITEM: BOX BOUNDS xy xz yz pp pp pp
   -0.4969978280852610      8.9003909041056986     -0.2484989140426299
   -0.2555302228568745      8.8969197516530976     -0.2484989140426311
    0.0000000000000000      8.8932527906006076     -0.2555302228568745
ITEM: ATOMS id type x y z
1      1          0.0089463930373139     0.0309093493668333    -0.0536183103998101
2      1          1.4019986805994371     1.3662268136726132     1.4068903583410395
3      1         -0.0825509276196835    -0.1275499460536997     2.9972031661629375
4      1          1.2534439841901102     1.3951159504073489     4.4945672531185945
5      1         -0.1190889799001766    -0.2320471648041690     5.8492186445676460
6      1          1.2252304132654439     1.3244773188525862     7.4109716603778093
7      1         -0.1023106949359041     2.9828671273136429    -0.0590005069886816
8      1          1.2889864118292882     4.3622600920358376     1.4586313030767539
9      1         -0.2171996848234209     2.8754321617886860     2.9265934069814059
10     1          1.2435764239776443     4.2561878226225307     4.4697195048216560
11     1         -0.3067922959090014     2.8270375062063917     5.8642117794473201
12     1          1.2334603009107272     4.2761899063208588     7.3695655647100526
13     1         -0.2111084774487199     5.8891543747884070     0.0692882218168484
14     1          1.2741729213377553     7.4590343275824731     1.5082271952393755
15     1         -0.3071050420455739     5.8709681481392044     2.9471519394574375
16     1          1.2291449957958425     7.3694367125636200     4.5064264057148602
17     1         -0.2445660899830672     5.7253514126388705     5.9409116381398546
18     1          1.0653790752753685     7.1335821733746227     7.3558592835091785
19     1          2.8864984244141190    -0.0800252759130621    -0.0753302977627825
20     1          4.3268229915603165     1.4422024706804966     1.5408885554381353
21     1          2.9704280928623348    -0.1011040865905100     2.9646680901538041
22     1          4.2053741904970767     1.3279047040690355     4.4426528899534636
23     1          2.7764491267493066    -0.2245606780547650     5.9048085891111324
24     1          4.2906422474663559     1.1931328686285163     7.3984970946884339
25     1          2.9555399950220558     3.0049863056540143     0.0496643702091091
26     1          4.2603085537285503     4.3568030142652336     1.4665169503261795
27     1          2.8432399962683208     2.7920883384396169     2.9984971344439701
28     1          4.2572441853826586     4.3272381438679570     4.4074364982279643
29     1          2.7751440061805672     2.7937872780046398     5.8843923486797509
30     1          4.0572271775611588     4.2741091146466381     7.4941271312710409
31     1          2.8869864865345498     6.0197366850110798    -0.0408662752233679
32     1          4.1962260594194527     7.4538847399738994     1.4707314628236452
33     1          2.6629305019240603     5.8172917635058017     2.9542558697865693
34     1          4.1278961491867552     7.2377837865215291     4.3991622158315895
35     1          2.5681238456110367     5.7964806202116739     5.9494847338299941
36     1          4.1130675017567304     7.1285691161871503     7.4822421882416821
37     1          5.9654057937469229    -0.0184460935430257    -0.0150447157458590
38     1          7.2936408025547035     1.4211981877644992     1.4243549281712211
39     1          5.9168833016008620    -0.1706467666867157     3.0168083419398166
40     1          7.1910289292134797     1.2991951640590664     4.3981599462420888
41     1          5.7344363530326667    -0.2017480283204127     5.8850824650963016
42     1          7.0989480349171972     1.3161585705589545     7.4725636612296720
43     1          5.8663228079140168     2.9646667522203423    -0.0836188093636222
44     1          7.2372480012616043     4.3839747640931410     1.5362596173606275
45     1          5.8263449356898418     2.9246580725836098     2.9719507748640273
46     1          7.0773877704281558     4.3489894765285895     4.5097987271730560
47     1          5.7513067934275961     2.7269554041533208     5.9352350748836145
48     1          7.0842270135772987     4.1833716353048800     7.4120575265435420
49     1          5.8451660638651450     5.8870831735612965     0.0825098207406343
50     1          7.2144460383245166     7.2816671188204438     1.5658821530808391
51     1          5.6476883256776658     5.8607752377418976     2.9346942709483641
52     1          7.1201216232050673     7.3100684982375359     4.4625488750965951
53     1          5.6166349093769288     5.8468290863565944     5.9324577120371096
54     1          6.9219345482852024     7.2470675623868566     7.4371765190505936
ITEM: TIMESTEP energy, energy_weight, force_weight, nsims
6        -108740.2049633701681159    1    1   348
ITEM: NUMBER OF ATOMS
54        
ITEM: BOX BOUNDS xy xz yz pp pp pp
   -0.3727483710639461      8.9003909041056986     -0.1863741855319729
   -0.1903170587024907      8.8984417184976987     -0.1863741855319732
    0.0000000000000000      8.8964035289806596     -0.1903170587024907
ITEM: ATOMS id type x y z
1      1         -0.0874620530091242     0.0761495805460544    -0.0230986221226454
2      1          1.3918025625813513     1.5265306721057834     1.5551313706816998
3      1         -0.0989643827838743    -0.1021090068659481     3.0141780246889969
4      1          1.3090954796681460     1.4176958010268026     4.4337264263083256
5      1         -0.0617075409862314    -0.1095451068896927     5.9492954904966480
6      1          1.2830795760165643     1.3555064347720531     7.4615319619230149
7      1         -0.0130775577333739     2.9673173642145940     0.0743605888969848
8      1          1.3224976093628817     4.3553861417295909     1.5374986988872599
9      1         -0.2066720627567171     2.9142937314705062     3.0210798545467799
10     1          1.3850587704106043     4.2985058732974037     4.3998222324593801
11     1         -0.1422039246739907     2.7610622366971636     5.9723256103121196
12     1          1.2039269971827538     4.2139101296576662     7.4130323284444239
13     1         -0.1629717402421704     6.0177561321363529    -0.0887994518245205
14     1          1.3113232264887205     7.3847300068713393     1.4928574356191879
15     1         -0.1094406802480077     5.7882496687560678     2.9170292981525279
16     1          1.2693148193684960     7.2618174232753452     4.4450533272814230
17     1         -0.2337175415195146     5.7472719040917264     5.9415307094965542
18     1          1.1509471562158651     7.2639896781816917     7.3990222721669854
19     1          2.9696062128230620     0.0314095259677498    -0.0135928149519295
20     1          4.4409206596190733     1.4794889842114984     1.4951535973700181
21     1          2.9537064943631255    -0.0372628462318664     3.0474292225189150
22     1          4.4056853115579946     1.3586512182779287     4.4193694102932568
23     1          2.7828974240729552    -0.0418438576223892     5.9621427868328487
24     1          4.2264184488601915     1.3282020479411938     7.4265272829575348
25     1          2.8826864443084079     2.9148202399491150     0.0420764301306669
26     1          4.3737521969258122     4.4777257255224727     1.4880711705205962
27     1          2.7994303922443438     2.9670938548195083     3.0445245467667026
28     1          4.2655816239275639     4.4237366242679723     4.4500139618891836
29     1          2.7404919703364912     2.8473680909756878     5.9126832314134807
30     1          4.2852577900856321     4.3567230647042798     7.3926889224947034
31     1          2.9107267300514099     5.9824718678784308     0.0539237707102105
32     1          4.3084544242848342     7.3496521634092726     1.5403686786657091
33     1          2.7185152539581319     5.9231659853422221     2.9732705819820380
34     1          4.2021337615606251     7.3806379221042251     4.4243985472081890
35     1          2.7956981988206540     5.7919517217891947     5.9643321917413319
36     1          4.0671488394405646     7.1776238994171520     7.3365116927706016
37     1          5.8696279392211892    -0.0469444391401713    -0.0409803932158965
38     1          7.3197113622251706     1.4441484614833904     1.5076076726702379
39     1          5.9015475187797115    -0.0656257508575907     2.9105375924974304
40     1          7.2969882701732809     1.4642529243685800     4.4710157017000478
41     1          5.7978845339089951    -0.0814397892416677     5.9417442231812494
42     1          7.3114854853096389     1.3283649304029321     7.4205355551807664
43     1          5.8144967777909624     3.0438590173400297    -0.0694746840788687
44     1          7.3374861959227440     4.3713989950564471     1.4837101535106900
45     1          5.8894222284836104     2.8265465566985779     2.8786386480039177
46     1          7.1796086631789588     4.3172771393761398     4.4417091691948798
47     1          5.6777668551410860     2.8230792002030651     5.8793510763114485
48     1          7.1492207952004243     4.2220118521367498     7.4132547385326486
49     1          5.7359959954099740     5.9145619481533549     0.0589004188443223
50     1          7.1735071243551021     7.3570785293789900     1.4475809691391468
51     1          5.7910472085804843     5.7959883114949022     3.0447442879338684
52     1          7.2125330744059681     7.3265439800345797     4.5054421144361445
53     1          5.7426037980096760     5.7605486458875621     5.9009622197640486
54     1          7.1770110124632485     7.3099005526415750     7.4563711582358527
ITEM: TIMESTEP energy, energy_weight, force_weight, nsims
7        -108740.1492883094470017    1    1   348
ITEM: NUMBER OF ATOMS
54        
ITEM: BOX BOUNDS xy xz yz pp pp pp
   -0.2484989140426294      8.9003909041056986     -0.1242494570213148
   -0.1259939336385188      8.8995275661879987     -0.1242494570213146
    0.0000000000000000      8.8986286267066870     -0.1259939336385188
ITEM: ATOMS id type x y z
1      1         -0.0851716580814525     0.0229227432994285    -0.0795279338997403
2      1          1.5236791362309186     1.5334051462098253     1.3985511883906310