ITEM: TIMESTEP energy, energy_weight, force_weight, nsims
1        -2013.4660621202222046    1    1   594
ITEM: NUMBER OF ATOMS
1         
ITEM: BOX BOUNDS xy xz yz pp pp pp
    0.0000000000000000      2.4312397291815726      0.0000000000000001
    0.0000000000000000      2.4312397291815722      0.0000000000000001
    0.0000000000000000      2.4312397291815722      0.0000000000000001
ITEM: ATOMS id type x y z
1      1          0.0000000000000000     0.0000000000000000     0.0000000000000000
ITEM: TIMESTEP energy, energy_weight, force_weight, nsims
2        -2013.5013283617226989    1    1   594
ITEM: NUMBER OF ATOMS
1         
ITEM: BOX BOUNDS xy xz yz pp pp pp
    0.0000000000000000      2.4559241612536944      0.0000000000000002
    0.0000000000000000      2.4559241612536939      0.0000000000000002
    0.0000000000000000      2.4559241612536939      0.0000000000000002
ITEM: ATOMS id type x y z
1      1          0.0000000000000000     0.0000000000000000     0.0000000000000000
ITEM: TIMESTEP energy, energy_weight, force_weight, nsims
3        -2013.5046652952305521    1    1   594
ITEM: NUMBER OF ATOMS
1         
ITEM: BOX BOUNDS xy xz yz pp pp pp
    0.0000000000000000      2.4586509299128241      0.0000000000000002
    0.0000000000000000      2.4586509299128236      0.0000000000000002
    0.0000000000000000      2.4586509299128236      0.0000000000000002
ITEM: ATOMS id type x y z
1      1          0.0000000000000000     0.0000000000000000     0.0000000000000000
ITEM: TIMESTEP energy, energy_weight, force_weight, nsims
4        -2013.5078865803045574    1    1   594
ITEM: NUMBER OF ATOMS
1         
ITEM: BOX BOUNDS xy xz yz pp pp pp
    0.0000000000000000      2.4613751358194547      0.0000000000000002
    0.0000000000000000      2.4613751358194542      0.0000000000000002
    0.0000000000000000      2.4613751358194542      0.0000000000000002
ITEM: ATOMS id type x y z
1      1          0.0000000000000000     0.0000000000000000     0.0000000000000000
ITEM: TIMESTEP energy, energy_weight, force_weight, nsims
5        -2013.5110013327628167    1    1   594
ITEM: NUMBER OF ATOMS
1         
ITEM: BOX BOUNDS xy xz yz pp pp pp
    0.0000000000000000      2.4640967789735861      0.0000000000000002
    0.0000000000000000      2.4640967789735857      0.0000000000000002
    0.0000000000000000      2.4640967789735857      0.0000000000000002
ITEM: ATOMS id type x y z
1      1          0.0000000000000000     0.0000000000000000     0.0000000000000000
ITEM: TIMESTEP energy, energy_weight, force_weight, nsims
6        -2013.5140098247190963    1    1   594
ITEM: NUMBER OF ATOMS
1         
ITEM: BOX BOUNDS xy xz yz pp pp pp
    0.0000000000000000      2.4668158593752185      0.0000000000000002
    0.0000000000000000      2.4668158593752181      0.0000000000000002
    0.0000000000000000      2.4668158593752181      0.0000000000000002
ITEM: ATOMS id type x y z
1      1          0.0000000000000000     0.0000000000000000     0.0000000000000000
ITEM: TIMESTEP energy, energy_weight, force_weight, nsims
7        -2013.5169128725153769    1    1   594
ITEM: NUMBER OF ATOMS
1         
ITEM: BOX BOUNDS xy xz yz pp pp pp
    0.0000000000000000      2.4695298142718523      0.0000000000000002
    0.0000000000000000      2.4695298142718518      0.0000000000000002
    0.0000000000000000      2.4695298142718518      0.0000000000000002
ITEM: ATOMS id type x y z
1      1          0.0000000000000000     0.0000000000000000     0.0000000000000000
ITEM: TIMESTEP energy, energy_weight, force_weight, nsims
8        -2013.5197142857471135    1    1   594
ITEM: NUMBER OF ATOMS
1         
ITEM: BOX BOUNDS xy xz yz pp pp pp
    0.0000000000000000      2.4722412064159869      0.0000000000000002
    0.0000000000000000      2.4722412064159864      0.0000000000000002
    0.0000000000000000      2.4722412064159864      0.0000000000000002
ITEM: ATOMS id type x y z
1      1          0.0000000000000000     0.0000000000000000     0.0000000000000000
ITEM: TIMESTEP energy, energy_weight, force_weight, nsims
9        -2013.5224114793318222    1    1   594
ITEM: NUMBER OF ATOMS
1         
ITEM: BOX BOUNDS xy xz yz pp pp pp
    0.0000000000000000      2.4749525985601220      0.0000000000000002
    0.0000000000000000      2.4749525985601215      0.0000000000000002
    0.0000000000000000      2.4749525985601215      0.0000000000000002
ITEM: ATOMS id type x y z
1      1          0.0000000000000000     0.0000000000000000     0.0000000000000000
ITEM: TIMESTEP energy, energy_weight, force_weight, nsims
10       -2013.5250045893260449    1    1   594
ITEM: NUMBER OF ATOMS
1         
ITEM: BOX BOUNDS xy xz yz pp pp pp
    0.0000000000000000      2.4776588651992579      0.0000000000000002
    0.0000000000000000      2.4776588651992575      0.0000000000000002
    0.0000000000000000      2.4776588651992575      0.0000000000000002
ITEM: ATOMS id type x y z
1      1          0.0000000000000000     0.0000000000000000     0.0000000000000000
ITEM: TIMESTEP energy, energy_weight, force_weight, nsims
11       -2013.5275028676048805    1    1   594
ITEM: NUMBER OF ATOMS
1         
ITEM: BOX BOUNDS xy xz yz pp pp pp
    0.0000000000000000      2.4803625690858948      0.0000000000000002
    0.0000000000000000      2.4803625690858944      0.0000000000000002
    0.0000000000000000      2.4803625690858944      0.0000000000000002
ITEM: ATOMS id type x y z
1      1          0.0000000000000000     0.0000000000000000     0.0000000000000000
ITEM: TIMESTEP energy, energy_weight, force_weight, nsims
12       -2013.4704665567996926    1    1   594
ITEM: NUMBER OF ATOMS
1         
ITEM: BOX BOUNDS xy xz yz pp pp pp
    0.0000000000000000      2.4339946881181933      0.0000000000000001
    0.0000000000000000      2.4339946881181929      0.0000000000000001
    0.0000000000000000      2.4339946881181929      0.0000000000000001
ITEM: ATOMS id type x y z
1      1          0.0000000000000000     0.0000000000000000     0.0000000000000000
ITEM: TIMESTEP energy, energy_weight, force_weight, nsims
13       -2013.5299026406298708    1    1   594
ITEM: NUMBER OF ATOMS
1         
ITEM: BOX BOUNDS xy xz yz pp pp pp
    0.0000000000000000      2.4830611474675339      0.0000000000000002
    0.0000000000000000      2.4830611474675335      0.0000000000000002
    0.0000000000000000      2.4830611474675335      0.0000000000000002
ITEM: ATOMS id type x y z
1      1          0.0000000000000000     0.0000000000000000     0.0000000000000000
ITEM: TIMESTEP energy, energy_weight, force_weight, nsims
14       -2013.5322000988053333    1    1   594
ITEM: NUMBER OF ATOMS
1         
ITEM: BOX BOUNDS xy xz yz pp pp pp
    0.0000000000000000      2.4857597258491726      0.0000000000000002
    0.0000000000000000      2.4857597258491722      0.0000000000000002
    0.0000000000000000      2.4857597258491722      0.0000000000000002
ITEM: ATOMS id type x y z
1      1          0.0000000000000000     0.0000000000000000     0.0000000000000000
ITEM: TIMESTEP energy, energy_weight, force_weight, nsims
15       -2013.5344091199431205    1    1   594
ITEM: NUMBER OF ATOMS
1         
ITEM: BOX BOUNDS xy xz yz pp pp pp
    0.0000000000000000      2.4884531787258131      0.0000000000000002
    0.0000000000000000      2.4884531787258126      0.0000000000000002
    0.0000000000000000      2.4884531787258126      0.0000000000000002
ITEM: ATOMS id type x y z
1      1          0.0000000000000000     0.0000000000000000     0.0000000000000000
ITEM: TIMESTEP energy, energy_weight, force_weight, nsims
16       -2013.5365229011947577    1    1   594
ITEM: NUMBER OF ATOMS
1         
ITEM: BOX BOUNDS xy xz yz pp pp pp
    0.0000000000000000      2.4911466316024531      0.0000000000000002
    0.0000000000000000      2.4911466316024526      0.0000000000000002
    0.0000000000000000      2.4911466316024526      0.0000000000000002
ITEM: ATOMS id type x y z
1      1          0.0000000000000000     0.0000000000000000     0.0000000000000000
ITEM: TIMESTEP energy, energy_weight, force_weight, nsims
17       -2013.5385430752435241    1    1   594
ITEM: NUMBER OF ATOMS
1         
ITEM: BOX BOUNDS xy xz yz pp pp pp
    0.0000000000000000      2.4938349589740954      0.0000000000000002
    0.0000000000000000      2.4938349589740949      0.0000000000000002
    0.0000000000000000      2.4938349589740949      0.0000000000000002
ITEM: ATOMS id type x y z
1      1          0.0000000000000000     0.0000000000000000     0.0000000000000000
ITEM: TIMESTEP energy, energy_weight, force_weight, nsims
18       -2013.5404708666023907    1    1   594
ITEM: NUMBER OF ATOMS
1         
ITEM: BOX BOUNDS xy xz yz pp pp pp
    0.0000000000000000      2.4965207235932385      0.0000000000000002
    0.0000000000000000      2.4965207235932381      0.0000000000000002
    0.0000000000000000      2.4965207235932381      0.0000000000000002
ITEM: ATOMS id type x y z
1      1          0.0000000000000000     0.0000000000000000     0.0000000000000000
ITEM: TIMESTEP energy, energy_weight, force_weight, nsims
19       -2013.5423143026337129    1    1   594
ITEM: NUMBER OF ATOMS
1         
ITEM: BOX BOUNDS xy xz yz pp pp pp
    0.0000000000000000      2.4992039254598821      0.0000000000000002
    0.0000000000000000      2.4992039254598817      0.0000000000000002
    0.0000000000000000      2.4992039254598817      0.0000000000000002
ITEM: ATOMS id type x y z
1      1          0.0000000000000000     0.0000000000000000     0.0000000000000000
ITEM: TIMESTEP energy, energy_weight, force_weight, nsims
20       -2013.5440624987779756    1    1   594
ITEM: NUMBER OF ATOMS
1         
ITEM: BOX BOUNDS xy xz yz pp pp pp
    0.0000000000000000      2.5018845645740266      0.0000000000000002
    0.0000000000000000      2.5018845645740262      0.0000000000000002
    0.0000000000000000      2.5018845645740262      0.0000000000000002
ITEM: ATOMS id type x y z
1      1          0.0000000000000000     0.0000000000000000     0.0000000000000000
ITEM: TIMESTEP energy, energy_weight, force_weight, nsims
21       -2013.5457287886201811    1    1   594
ITEM: NUMBER OF ATOMS
1         
ITEM: BOX BOUNDS xy xz yz pp pp pp
    0.0000000000000000      2.5045600781831725      0.0000000000000002
    0.0000000000000000      2.5045600781831721      0.0000000000000002
    0.0000000000000000      2.5045600781831721      0.0000000000000002
ITEM: ATOMS id type x y z
1      1          0.0000000000000000     0.0000000000000000     0.0000000000000000
ITEM: TIMESTEP energy, energy_weight, force_weight, nsims
22       -2013.5473099067921794    1    1   594
ITEM: NUMBER OF ATOMS
1         
ITEM: BOX BOUNDS xy xz yz pp pp pp
    0.0000000000000000      2.5072355917923188      0.0000000000000002
    0.0000000000000000      2.5072355917923184      0.0000000000000002
    0.0000000000000000      2.5072355917923184      0.0000000000000002
ITEM: ATOMS id type x y z
1      1          0.0000000000000000     0.0000000000000000     0.0000000000000000
ITEM: TIMESTEP energy, energy_weight, force_weight, nsims
23       -2013.4747470454683480    1    1   594
ITEM: NUMBER OF ATOMS
1         
ITEM: BOX BOUNDS xy xz yz pp pp pp
    0.0000000000000000      2.4367470843023153      0.0000000000000001
    0.0000000000000000      2.4367470843023149      0.0000000000000001
    0.0000000000000000      2.4367470843023149      0.0000000000000001
ITEM: ATOMS id type x y z
1      1          0.0000000000000000     0.0000000000000000     0.0000000000000000
ITEM: TIMESTEP energy, energy_weight, force_weight, nsims
24       -2013.5488021797561942    1    1   594
ITEM: NUMBER OF ATOMS
1         
ITEM: BOX BOUNDS xy xz yz pp pp pp
    0.0000000000000000      2.5099059798964660      0.0000000000000002
    0.0000000000000000      2.5099059798964656      0.0000000000000002
    0.0000000000000000      2.5099059798964656      0.0000000000000002
ITEM: ATOMS id type x y z
1      1          0.0000000000000000     0.0000000000000000     0.0000000000000000
ITEM: TIMESTEP energy, energy_weight, force_weight, nsims
25       -2013.5502129545886874    1    1   594
ITEM: NUMBER OF ATOMS
1         
ITEM: BOX BOUNDS xy xz yz pp pp pp
    0.0000000000000000      2.5125763680006141      0.0000000000000002
    0.0000000000000000      2.5125763680006137      0.0000000000000002
    0.0000000000000000      2.5125763680006137      0.0000000000000002
ITEM: ATOMS id type x y z
1      1          0.0000000000000000     0.0000000000000000     0.0000000000000000
ITEM: TIMESTEP energy, energy_weight, force_weight, nsims
26       -2013.5515448163723704    1    1   594
ITEM: NUMBER OF ATOMS
1         
ITEM: BOX BOUNDS xy xz yz pp pp pp
    0.0000000000000000      2.5152416305997631      0.0000000000000002
    0.0000000000000000      2.5152416305997627      0.0000000000000002
    0.0000000000000000      2.5152416305997627      0.0000000000000002
ITEM: ATOMS id type x y z
1      1          0.0000000000000000     0.0000000000000000     0.0000000000000000
ITEM: TIMESTEP energy, energy_weight, force_weight, nsims
27       -2013.5527912343723074    1    1   594
ITEM: NUMBER OF ATOMS
1         
ITEM: BOX BOUNDS xy xz yz pp pp pp
    0.0000000000000000      2.5179043304464139      0.0000000000000002
    0.0000000000000000      2.5179043304464135      0.0000000000000002
    0.0000000000000000      2.5179043304464135      0.0000000000000002
ITEM: ATOMS id type x y z
1      1          0.0000000000000000     0.0000000000000000     0.0000000000000000
ITEM: TIMESTEP energy, energy_weight, force_weight, nsims
28       -2013.5539609162347006    1    1   594
ITEM: NUMBER OF ATOMS
1         
ITEM: BOX BOUNDS xy xz yz pp pp pp
    0.0000000000000000      2.5205644675405647      0.0000000000000002
    0.0000000000000000      2.5205644675405643      0.0000000000000002
    0.0000000000000000      2.5205644675405643      0.0000000000000002
ITEM: ATOMS id type x y z
1      1          0.0000000000000000     0.0000000000000000     0.0000000000000000
ITEM: TIMESTEP energy, energy_weight, force_weight, nsims
29       -2013.5550537259034627    1    1   594
ITEM: NUMBER OF ATOMS
1         
ITEM: BOX BOUNDS xy xz yz pp pp pp
    0.0000000000000000      2.5232220418822164      0.0000000000000002
    0.0000000000000000      2.5232220418822160      0.0000000000000002
    0.0000000000000000      2.5232220418822160      0.0000000000000002
ITEM: ATOMS id type x y z
1      1          0.0000000000000000     0.0000000000000000     0.0000000000000000
ITEM: TIMESTEP energy, energy_weight, force_weight, nsims
30       -2013.5560666701244372    1    1   594
ITEM: NUMBER OF ATOMS
1         
ITEM: BOX BOUNDS xy xz yz pp pp pp
    0.0000000000000000      2.5258770534713690      0.0000000000000002
    0.0000000000000000      2.5258770534713686      0.0000000000000002
    0.0000000000000000      2.5258770534713686      0.0000000000000002
ITEM: ATOMS id type x y z
1      1          0.0000000000000000     0.0000000000000000     0.0000000000000000
ITEM: TIMESTEP energy, energy_weight, force_weight, nsims
31       -2013.5570065517467810    1    1   594
ITEM: NUMBER OF ATOMS
1         
ITEM: BOX BOUNDS xy xz yz pp pp pp
    0.0000000000000000      2.5285295023080225      0.0000000000000002
    0.0000000000000000      2.5285295023080221      0.0000000000000002
    0.0000000000000000      2.5285295023080221      0.0000000000000002
ITEM: ATOMS id type x y z
1      1          0.0000000000000000     0.0000000000000000     0.0000000000000000
ITEM: TIMESTEP energy, energy_weight, force_weight, nsims
32       -2013.5578701054032535    1    1   594
ITEM: NUMBER OF ATOMS
1         
ITEM: BOX BOUNDS xy xz yz pp pp pp
    0.0000000000000000      2.5311768256396778      0.0000000000000002
    0.0000000000000000      2.5311768256396774      0.0000000000000002
    0.0000000000000000      2.5311768256396774      0.0000000000000002
ITEM: ATOMS id type x y z
1      1          0.0000000000000000     0.0000000000000000     0.0000000000000000
ITEM: TIMESTEP energy, energy_weight, force_weight, nsims
33       -2013.5586593719481243    1    1   594
ITEM: NUMBER OF ATOMS
1         
ITEM: BOX BOUNDS xy xz yz pp pp pp
    0.0000000000000000      2.5338241489713327      0.0000000000000002
    0.0000000000000000      2.5338241489713322      0.0000000000000002
    0.0000000000000000      2.5338241489713322      0.0000000000000002
ITEM: ATOMS id type x y z
1      1          0.0000000000000000     0.0000000000000000     0.0000000000000000
ITEM: TIMESTEP energy, energy_weight, force_weight, nsims
34       -2013.4789044025696967    1    1   594
ITEM: NUMBER OF ATOMS
1         
ITEM: BOX BOUNDS xy xz yz pp pp pp
    0.0000000000000000      2.4394969177339374      0.0000000000000001
    0.0000000000000000      2.4394969177339370      0.0000000000000001
    0.0000000000000000      2.4394969177339370      0.0000000000000001
ITEM: ATOMS id type x y z
1      1          0.0000000000000000     0.0000000000000000     0.0000000000000000
ITEM: TIMESTEP energy, energy_weight, force_weight, nsims
35       -2013.5593724465836658    1    1   594
ITEM: NUMBER OF ATOMS
1         
ITEM: BOX BOUNDS xy xz yz pp pp pp
    0.0000000000000000      2.5364663467979898      0.0000000000000002
    0.0000000000000000      2.5364663467979893      0.0000000000000002
    0.0000000000000000      2.5364663467979893      0.0000000000000002
ITEM: ATOMS id type x y z
1      1          0.0000000000000000     0.0000000000000000     0.0000000000000000
ITEM: TIMESTEP energy, energy_weight, force_weight, nsims
36       -2013.5600183090707560    1    1   594
ITEM: NUMBER OF ATOMS
1         
ITEM: BOX BOUNDS xy xz yz pp pp pp
    0.0000000000000000      2.5391085446246464      0.0000000000000002
    0.0000000000000000      2.5391085446246460      0.0000000000000002
    0.0000000000000000      2.5391085446246460      0.0000000000000002
ITEM: ATOMS id type x y z
1      1          0.0000000000000000     0.0000000000000000     0.0000000000000000
ITEM: TIMESTEP energy, energy_weight, force_weight, nsims
37       -2013.5605926055861801    1    1   594
ITEM: NUMBER OF ATOMS
1         
ITEM: BOX BOUNDS xy xz yz pp pp pp
    0.0000000000000000      2.5417456169463049      0.0000000000000002
    0.0000000000000000      2.5417456169463044      0.0000000000000002
    0.0000000000000000      2.5417456169463044      0.0000000000000002
ITEM: ATOMS id type x y z
1      1          0.0000000000000000     0.0000000000000000     0.0000000000000000
ITEM: TIMESTEP energy, energy_weight, force_weight, nsims
38       -2013.5610958803574704    1    1   594
ITEM: NUMBER OF ATOMS
1         
ITEM: BOX BOUNDS xy xz yz pp pp pp
    0.0000000000000000      2.5443801265154642      0.0000000000000002
    0.0000000000000000      2.5443801265154637      0.0000000000000002
    0.0000000000000000      2.5443801265154637      0.0000000000000002
ITEM: ATOMS id type x y z
1      1          0.0000000000000000     0.0000000000000000     0.0000000000000000
ITEM: TIMESTEP energy, energy_weight, force_weight, nsims
39       -2013.5615293578980527    1    1   594
ITEM: NUMBER OF ATOMS
1         
ITEM: BOX BOUNDS xy xz yz pp pp pp
    0.0000000000000000      2.5470146360846231      0.0000000000000002
    0.0000000000000000      2.5470146360846226      0.0000000000000002
    0.0000000000000000      2.5470146360846226      0.0000000000000002
ITEM: ATOMS id type x y z
1      1          0.0000000000000000     0.0000000000000000     0.0000000000000000
ITEM: TIMESTEP energy, energy_weight, force_weight, nsims
40       -2013.5619032424808665    1    1   594
ITEM: NUMBER OF ATOMS
1         
ITEM: BOX BOUNDS xy xz yz pp pp pp
    0.0000000000000000      2.5496440201487842      0.0000000000000002
    0.0000000000000000      2.5496440201487838      0.0000000000000002
    0.0000000000000000      2.5496440201487838      0.0000000000000002
ITEM: ATOMS id type x y z
1      1          0.0000000000000000     0.0000000000000000     0.0000000000000000
ITEM: TIMESTEP energy, energy_weight, force_weight, nsims
41       -2013.5622029760090754    1    1   594
ITEM: NUMBER OF ATOMS
1         
ITEM: BOX BOUNDS xy xz yz pp pp pp
    0.0000000000000000      2.5522708414604454      0.0000000000000002
    0.0000000000000000      2.5522708414604449      0.0000000000000002
    0.0000000000000000      2.5522708414604449      0.0000000000000002
ITEM: ATOMS id type x y z
1      1          0.0000000000000000     0.0000000000000000     0.0000000000000000
ITEM: TIMESTEP energy, energy_weight, force_weight, nsims
42       -2013.5624406675547107    1    1   594
ITEM: NUMBER OF ATOMS
1         
ITEM: BOX BOUNDS xy xz yz pp pp pp
    0.0000000000000000      2.5548951000196083      0.0000000000000002
    0.0000000000000000      2.5548951000196078      0.0000000000000002
    0.0000000000000000      2.5548951000196078      0.0000000000000002
ITEM: ATOMS id type x y z
1      1          0.0000000000000000     0.0000000000000000     0.0000000000000000
ITEM: TIMESTEP energy, energy_weight, force_weight, nsims
43       -2013.5626146844329014    1    1   594
ITEM: NUMBER OF ATOMS
1         
ITEM: BOX BOUNDS xy xz yz pp pp pp
    0.0000000000000000      2.5575167958262712      0.0000000000000002
    0.0000000000000000      2.5575167958262708      0.0000000000000002
    0.0000000000000000      2.5575167958262708      0.0000000000000002
ITEM: ATOMS id type x y z
1      1          0.0000000000000000     0.0000000000000000     0.0000000000000000
ITEM: TIMESTEP energy, energy_weight, force_weight, nsims
44       -2013.5627194483079165    1    1   594
ITEM: NUMBER OF ATOMS
1         
ITEM: BOX BOUNDS xy xz yz pp pp pp
    0.0000000000000000      2.5601359288804355      0.0000000000000002
    0.0000000000000000      2.5601359288804351      0.0000000000000002
    0.0000000000000000      2.5601359288804351      0.0000000000000002
ITEM: ATOMS id type x y z
1      1          0.0000000000000000     0.0000000000000000     0.0000000000000000
ITEM: TIMESTEP energy, energy_weight, force_weight, nsims
45       -2013.4829349545643709    1    1   594
ITEM: NUMBER OF ATOMS
1         
ITEM: BOX BOUNDS xy xz yz pp pp pp
    0.0000000000000000      2.4422416256605612      0.0000000000000001
    0.0000000000000000      2.4422416256605608      0.0000000000000001
    0.0000000000000000      2.4422416256605608      0.0000000000000001
ITEM: ATOMS id type x y z
1      1          0.0000000000000000     0.0000000000000000     0.0000000000000000
ITEM: TIMESTEP energy, energy_weight, force_weight, nsims
46       -2013.5627682927640763    1    1   594
ITEM: NUMBER OF ATOMS
1         
ITEM: BOX BOUNDS xy xz yz pp pp pp
    0.0000000000000000      2.5627524991821002      0.0000000000000002
    0.0000000000000000      2.5627524991820998      0.0000000000000002
    0.0000000000000000      2.5627524991820998      0.0000000000000002
ITEM: ATOMS id type x y z
1      1          0.0000000000000000     0.0000000000000000     0.0000000000000000
ITEM: TIMESTEP energy, energy_weight, force_weight, nsims
47       -2013.5627526462112655    1    1   594
ITEM: NUMBER OF ATOMS
1         
ITEM: BOX BOUNDS xy xz yz pp pp pp
    0.0000000000000000      2.5653665067312659      0.0000000000000002
    0.0000000000000000      2.5653665067312654      0.0000000000000002
    0.0000000000000000      2.5653665067312654      0.0000000000000002
ITEM: ATOMS id type x y z
1      1          0.0000000000000000     0.0000000000000000     0.0000000000000000
ITEM: TIMESTEP energy, energy_weight, force_weight, nsims
48       -2013.5626749576751990    1    1   594
ITEM: NUMBER OF ATOMS
1         
ITEM: BOX BOUNDS xy xz yz pp pp pp
    0.0000000000000000      2.5679779515279324      0.0000000000000002
    0.0000000000000000      2.5679779515279320      0.0000000000000002
    0.0000000000000000      2.5679779515279320      0.0000000000000002
ITEM: ATOMS id type x y z
1      1          0.0000000000000000     0.0000000000000000     0.0000000000000000
ITEM: TIMESTEP energy, energy_weight, force_weight, nsims
49       -2013.5625408054920626    1    1   594
ITEM: NUMBER OF ATOMS
1         
ITEM: BOX BOUNDS xy xz yz pp pp pp
    0.0000000000000000      2.5705868335721003      0.0000000000000002
    0.0000000000000000      2.5705868335720998      0.0000000000000002
    0.0000000000000000      2.5705868335720998      0.0000000000000002
ITEM: ATOMS id type x y z
1      1          0.0000000000000000     0.0000000000000000     0.0000000000000000
ITEM: TIMESTEP energy, energy_weight, force_weight, nsims
50       -2013.5623469242948431    1    1   594
ITEM: NUMBER OF ATOMS
1         
ITEM: BOX BOUNDS xy xz yz pp pp pp
    0.0000000000000000      2.5731905901112686      0.0000000000000002
    0.0000000000000000      2.5731905901112682      0.0000000000000002
    0.0000000000000000      2.5731905901112682      0.0000000000000002
ITEM: ATOMS id type x y z
1      1          0.0000000000000000     0.0000000000000000     0.0000000000000000
ITEM: TIMESTEP energy, energy_weight, force_weight, nsims
51       -2013.5620926337981018    1    1   594
ITEM: NUMBER OF ATOMS
1         
ITEM: BOX BOUNDS xy xz yz pp pp pp
    0.0000000000000000      2.5757943466504378      0.0000000000000002
    0.0000000000000000      2.5757943466504374      0.0000000000000002
    0.0000000000000000      2.5757943466504374      0.0000000000000002
ITEM: ATOMS id type x y z
1      1          0.0000000000000000     0.0000000000000000     0.0000000000000000
ITEM: TIMESTEP energy, energy_weight, force_weight, nsims
52       -2013.5617866416482684    1    1   594
ITEM: NUMBER OF ATOMS
1         
ITEM: BOX BOUNDS xy xz yz pp pp pp
    0.0000000000000000      2.5783955404371084      0.0000000000000002
    0.0000000000000000      2.5783955404371079      0.0000000000000002
    0.0000000000000000      2.5783955404371079      0.0000000000000002
ITEM: ATOMS id type x y z
1      1          0.0000000000000000     0.0000000000000000     0.0000000000000000
ITEM: TIMESTEP energy, energy_weight, force_weight, nsims
53       -2013.5614187435726308    1    1   594
ITEM: NUMBER OF ATOMS
1         
ITEM: BOX BOUNDS xy xz yz pp pp pp
    0.0000000000000000      2.5809941714712785      0.0000000000000002
    0.0000000000000000      2.5809941714712781      0.0000000000000002
    0.0000000000000000      2.5809941714712781      0.0000000000000002
ITEM: ATOMS id type x y z
1      1          0.0000000000000000     0.0000000000000000     0.0000000000000000
ITEM: TIMESTEP energy, energy_weight, force_weight, nsims
54       -2013.5609983275026025    1    1   594
ITEM: NUMBER OF ATOMS
1         
ITEM: BOX BOUNDS xy xz yz pp pp pp
    0.0000000000000000      2.5835876770004504      0.0000000000000002
    0.0000000000000000      2.5835876770004500      0.0000000000000002
    0.0000000000000000      2.5835876770004500      0.0000000000000002
ITEM: ATOMS id type x y z
1      1          0.0000000000000000     0.0000000000000000     0.0000000000000000
ITEM: TIMESTEP energy, energy_weight, force_weight, nsims
55       -2013.5605230804687835    1    1   594
ITEM: NUMBER OF ATOMS
1         
ITEM: BOX BOUNDS xy xz yz pp pp pp
    0.0000000000000000      2.5861811825296233      0.0000000000000002
    0.0000000000000000      2.5861811825296228      0.0000000000000002
    0.0000000000000000      2.5861811825296228      0.0000000000000002
ITEM: ATOMS id type x y z
1      1          0.0000000000000000     0.0000000000000000     0.0000000000000000
ITEM: TIMESTEP energy, energy_weight, force_weight, nsims
56       -2013.4868484975561387    1    1   594
ITEM: NUMBER OF ATOMS
1         
ITEM: BOX BOUNDS xy xz yz pp pp pp
    0.0000000000000000      2.4449837708346860      0.0000000000000001
    0.0000000000000000      2.4449837708346855      0.0000000000000001
    0.0000000000000000      2.4449837708346855      0.0000000000000001
ITEM: ATOMS id type x y z
1      1          0.0000000000000000     0.0000000000000000     0.0000000000000000
ITEM: TIMESTEP energy, energy_weight, force_weight, nsims
57       -2013.5599970841819868    1    1   594
ITEM: NUMBER OF ATOMS
1         
ITEM: BOX BOUNDS xy xz yz pp pp pp
    0.0000000000000000      2.5887721253062965      0.0000000000000002
    0.0000000000000000      2.5887721253062961      0.0000000000000002
    0.0000000000000000      2.5887721253062961      0.0000000000000002
ITEM: ATOMS id type x y z
1      1          0.0000000000000000     0.0000000000000000     0.0000000000000000
ITEM: TIMESTEP energy, energy_weight, force_weight, nsims
58       -2013.5594108146522103    1    1   594
ITEM: NUMBER OF ATOMS
1         
ITEM: BOX BOUNDS xy xz yz pp pp pp
    0.0000000000000000      2.5913579425779707      0.0000000000000002
    0.0000000000000000      2.5913579425779703      0.0000000000000002
    0.0000000000000000      2.5913579425779703      0.0000000000000002
ITEM: ATOMS id type x y z
1      1          0.0000000000000000     0.0000000000000000     0.0000000000000000
ITEM: TIMESTEP energy, energy_weight, force_weight, nsims
59       -2013.5587838640851714    1    1   594
ITEM: NUMBER OF ATOMS
1         
ITEM: BOX BOUNDS xy xz yz pp pp pp
    0.0000000000000000      2.5939437598496453      0.0000000000000002
    0.0000000000000000      2.5939437598496449      0.0000000000000002
    0.0000000000000000      2.5939437598496449      0.0000000000000002
ITEM: ATOMS id type x y z
1      1          0.0000000000000000     0.0000000000000000     0.0000000000000000
ITEM: TIMESTEP energy, energy_weight, force_weight, nsims
60       -2013.5580985450735625    1    1   594
ITEM: NUMBER OF ATOMS
1         
ITEM: BOX BOUNDS xy xz yz pp pp pp
    0.0000000000000000      2.5965244516163217      0.0000000000000002
    0.0000000000000000      2.5965244516163213      0.0000000000000002
    0.0000000000000000      2.5965244516163213      0.0000000000000002
ITEM: ATOMS id type x y z
1      1          0.0000000000000000     0.0000000000000000     0.0000000000000000
ITEM: TIMESTEP energy, energy_weight, force_weight, nsims
61       -2013.5573608441247870    1    1   594
ITEM: NUMBER OF ATOMS
1         
ITEM: BOX BOUNDS xy xz yz pp pp pp