ITEM: TIMESTEP energy, energy_weight, force_weight, nsims
1        -2013.7074744156834640    1    1   497
ITEM: NUMBER OF ATOMS
1         
ITEM: BOX BOUNDS xy xz yz pp pp pp
    0.0000000000000000      5.1402270510851178      1.2850567627712792
    0.0000000000000000      2.9677114716397890      1.2850567627712792
    0.0000000000000000      2.0984889062016032      0.7419278679099472
ITEM: ATOMS id type x y z
1      1          0.0000000000000000     0.0000000000000000     0.0000000000000000
ITEM: TIMESTEP energy, energy_weight, force_weight, nsims
2        -2013.7512982330965770    1    1   497
ITEM: NUMBER OF ATOMS
1         
ITEM: BOX BOUNDS xy xz yz pp pp pp
    0.0000000000000000      5.1924050012792282      1.2981012503198073
    0.0000000000000000      2.9978364252301217      1.2981012503198073
    0.0000000000000000      2.1197904651682569      0.7494591063075304
ITEM: ATOMS id type x y z
1      1          0.0000000000000000     0.0000000000000000     0.0000000000000000
ITEM: TIMESTEP energy, energy_weight, force_weight, nsims
3        -2013.7554502839757333    1    1   497
ITEM: NUMBER OF ATOMS
1         
ITEM: BOX BOUNDS xy xz yz pp pp pp
    0.0000000000000000      5.1981808782166024      1.2995452195541506
    0.0000000000000000      3.0011711293347210      1.2995452195541506
    0.0000000000000000      2.1221484570538705      0.7502927823336802
ITEM: ATOMS id type x y z
1      1          0.0000000000000000     0.0000000000000000     0.0000000000000000
ITEM: TIMESTEP energy, energy_weight, force_weight, nsims
4        -2013.7594650533606000    1    1   497
ITEM: NUMBER OF ATOMS
1         
ITEM: BOX BOUNDS xy xz yz pp pp pp
    0.0000000000000000      5.2039350820697852      1.3009837705174465
    0.0000000000000000      3.0044933204783280      1.3009837705174465
    0.0000000000000000      2.1244976009399119      0.7511233301195820
ITEM: ATOMS id type x y z
1      1          0.0000000000000000     0.0000000000000000     0.0000000000000000
ITEM: TIMESTEP energy, energy_weight, force_weight, nsims
5        -2013.7633463508479963    1    1   497
ITEM: NUMBER OF ATOMS
1         
ITEM: BOX BOUNDS xy xz yz pp pp pp
    0.0000000000000000      5.2096892859229680      1.3024223214807422
    0.0000000000000000      3.0078155116219345      1.3024223214807422
    0.0000000000000000      2.1268467448259547      0.7519538779054837
ITEM: ATOMS id type x y z
1      1          0.0000000000000000     0.0000000000000000     0.0000000000000000
ITEM: TIMESTEP energy, energy_weight, force_weight, nsims
6        -2013.7670956730642047    1    1   497
ITEM: NUMBER OF ATOMS
1         
ITEM: BOX BOUNDS xy xz yz pp pp pp
    0.0000000000000000      5.2154326532340534      1.3038581633085136
    0.0000000000000000      3.0111314462850447      1.3038581633085136
    0.0000000000000000      2.1291914647122114      0.7527828615712613
ITEM: ATOMS id type x y z
1      1          0.0000000000000000     0.0000000000000000     0.0000000000000000
ITEM: TIMESTEP energy, energy_weight, force_weight, nsims
7        -2013.7707160132624722    1    1   497
ITEM: NUMBER OF ATOMS
1         
ITEM: BOX BOUNDS xy xz yz pp pp pp
    0.0000000000000000      5.2211760205451405      1.3052940051362851
    0.0000000000000000      3.0144473809481553      1.3052940051362851
    0.0000000000000000      2.1315361845984682      0.7536118452370388
ITEM: ATOMS id type x y z
1      1          0.0000000000000000     0.0000000000000000     0.0000000000000000
ITEM: TIMESTEP energy, energy_weight, force_weight, nsims
8        -2013.7742064190442761    1    1   497
ITEM: NUMBER OF ATOMS
1         
ITEM: BOX BOUNDS xy xz yz pp pp pp
    0.0000000000000000      5.2269085513141302      1.3067271378285326
    0.0000000000000000      3.0177570591307692      1.3067271378285326
    0.0000000000000000      2.1338764804849397      0.7544392647826924
ITEM: ATOMS id type x y z
1      1          0.0000000000000000     0.0000000000000000     0.0000000000000000
ITEM: TIMESTEP energy, energy_weight, force_weight, nsims
9        -2013.7775732850877830    1    1   497
ITEM: NUMBER OF ATOMS
1         
ITEM: BOX BOUNDS xy xz yz pp pp pp
    0.0000000000000000      5.2326410820831200      1.3081602705207800
    0.0000000000000000      3.0210667373133830      1.3081602705207800
    0.0000000000000000      2.1362167763714113      0.7552666843283459
ITEM: ATOMS id type x y z
1      1          0.0000000000000000     0.0000000000000000     0.0000000000000000
ITEM: TIMESTEP energy, energy_weight, force_weight, nsims
10       -2013.7808144344810444    1    1   497
ITEM: NUMBER OF ATOMS
1         
ITEM: BOX BOUNDS xy xz yz pp pp pp
    0.0000000000000000      5.2383627763100122      1.3095906940775031
    0.0000000000000000      3.0243701590155001      1.3095906940775031
    0.0000000000000000      2.1385526482580972      0.7560925397538751
ITEM: ATOMS id type x y z
1      1          0.0000000000000000     0.0000000000000000     0.0000000000000000
ITEM: TIMESTEP energy, energy_weight, force_weight, nsims
11       -2013.7839359897880058    1    1   497
ITEM: NUMBER OF ATOMS
1         
ITEM: BOX BOUNDS xy xz yz pp pp pp
    0.0000000000000000      5.2440736339948089      1.3110184084987022
    0.0000000000000000      3.0276673242371213      1.3110184084987022
    0.0000000000000000      2.1408840961449975      0.7569168310592804
ITEM: ATOMS id type x y z
1      1          0.0000000000000000     0.0000000000000000     0.0000000000000000
ITEM: TIMESTEP energy, energy_weight, force_weight, nsims
12       -2013.7129445865907655    1    1   497
ITEM: NUMBER OF ATOMS
1         
ITEM: BOX BOUNDS xy xz yz pp pp pp
    0.0000000000000000      5.1460462741908781      1.2865115685477198
    0.0000000000000000      2.9710712016663741      1.2865115685477198
    0.0000000000000000      2.1008645940863571      0.7427678004165936
ITEM: ATOMS id type x y z
1      1          0.0000000000000000     0.0000000000000000     0.0000000000000000
ITEM: TIMESTEP energy, energy_weight, force_weight, nsims
13       -2013.7869341414141218    1    1   497
ITEM: NUMBER OF ATOMS
1         
ITEM: BOX BOUNDS xy xz yz pp pp pp
    0.0000000000000000      5.2497844916796055      1.3124461229199011
    0.0000000000000000      3.0309644894587429      1.3124461229199011
    0.0000000000000000      2.1432155440318992      0.7577411223646857
ITEM: ATOMS id type x y z
1      1          0.0000000000000000     0.0000000000000000     0.0000000000000000
ITEM: TIMESTEP energy, energy_weight, force_weight, nsims
14       -2013.7898165085493929    1    1   497
ITEM: NUMBER OF ATOMS
1         
ITEM: BOX BOUNDS xy xz yz pp pp pp
    0.0000000000000000      5.2554845128223064      1.3138711282055766
    0.0000000000000000      3.0342553981998672      1.3138711282055766
    0.0000000000000000      2.1455425679190139      0.7585638495499669
ITEM: ATOMS id type x y z
1      1          0.0000000000000000     0.0000000000000000     0.0000000000000000
ITEM: TIMESTEP energy, energy_weight, force_weight, nsims
15       -2013.7925803700543383    1    1   497
ITEM: NUMBER OF ATOMS
1         
ITEM: BOX BOUNDS xy xz yz pp pp pp
    0.0000000000000000      5.2611845339650056      1.3152961334912516
    0.0000000000000000      3.0375463069409920      1.3152961334912516
    0.0000000000000000      2.1478695918061290      0.7593865767352480
ITEM: ATOMS id type x y z
1      1          0.0000000000000000     0.0000000000000000     0.0000000000000000
ITEM: TIMESTEP energy, energy_weight, force_weight, nsims
16       -2013.7952315763793649    1    1   497
ITEM: NUMBER OF ATOMS
1         
ITEM: BOX BOUNDS xy xz yz pp pp pp
    0.0000000000000000      5.2668737185656092      1.3167184296414023
    0.0000000000000000      3.0408309592016201      1.3167184296414023
    0.0000000000000000      2.1501921916934594      0.7602077398004050
ITEM: ATOMS id type x y z
1      1          0.0000000000000000     0.0000000000000000     0.0000000000000000
ITEM: TIMESTEP energy, energy_weight, force_weight, nsims
17       -2013.7977661818720208    1    1   497
ITEM: NUMBER OF ATOMS
1         
ITEM: BOX BOUNDS xy xz yz pp pp pp
    0.0000000000000000      5.2725629031662145      1.3181407257915534
    0.0000000000000000      3.0441156114622485      1.3181407257915534
    0.0000000000000000      2.1525147915807894      0.7610289028655621
ITEM: ATOMS id type x y z
1      1          0.0000000000000000     0.0000000000000000     0.0000000000000000
ITEM: TIMESTEP energy, energy_weight, force_weight, nsims
18       -2013.8001924860081999    1    1   497
ITEM: NUMBER OF ATOMS
1         
ITEM: BOX BOUNDS xy xz yz pp pp pp
    0.0000000000000000      5.2782412512247223      1.3195603128061806
    0.0000000000000000      3.0473940072423797      1.3195603128061806
    0.0000000000000000      2.1548329674683337      0.7618485018105950
ITEM: ATOMS id type x y z
1      1          0.0000000000000000     0.0000000000000000     0.0000000000000000
ITEM: TIMESTEP energy, energy_weight, force_weight, nsims
19       -2013.8025077676479668    1    1   497
ITEM: NUMBER OF ATOMS
1         
ITEM: BOX BOUNDS xy xz yz pp pp pp
    0.0000000000000000      5.2839087627411327      1.3209771906852834
    0.0000000000000000      3.0506661465420155      1.3209771906852834
    0.0000000000000000      2.1571467193560925      0.7626665366355039
ITEM: ATOMS id type x y z
1      1          0.0000000000000000     0.0000000000000000     0.0000000000000000
ITEM: TIMESTEP energy, energy_weight, force_weight, nsims
20       -2013.8047157003302345    1    1   497
ITEM: NUMBER OF ATOMS
1         
ITEM: BOX BOUNDS xy xz yz pp pp pp
    0.0000000000000000      5.2895762742575450      1.3223940685643862
    0.0000000000000000      3.0539382858416508      1.3223940685643862
    0.0000000000000000      2.1594604712438517      0.7634845714604127
ITEM: ATOMS id type x y z
1      1          0.0000000000000000     0.0000000000000000     0.0000000000000000
ITEM: TIMESTEP energy, energy_weight, force_weight, nsims
21       -2013.8068171003965290    1    1   497
ITEM: NUMBER OF ATOMS
1         
ITEM: BOX BOUNDS xy xz yz pp pp pp
    0.0000000000000000      5.2952437857739554      1.3238109464434888
    0.0000000000000000      3.0572104251412853      1.3238109464434888
    0.0000000000000000      2.1617742231316104      0.7643026062853214
ITEM: ATOMS id type x y z
1      1          0.0000000000000000     0.0000000000000000     0.0000000000000000
ITEM: TIMESTEP energy, energy_weight, force_weight, nsims
22       -2013.8088145529293342    1    1   497
ITEM: NUMBER OF ATOMS
1         
ITEM: BOX BOUNDS xy xz yz pp pp pp
    0.0000000000000000      5.3008896242061727      1.3252224060515434
    0.0000000000000000      3.0604700514799279      1.3252224060515434
    0.0000000000000000      2.1640791270197992      0.7651175128699821
ITEM: ATOMS id type x y z
1      1          0.0000000000000000     0.0000000000000000     0.0000000000000000
ITEM: TIMESTEP energy, energy_weight, force_weight, nsims
23       -2013.7182604688821357    1    1   497
ITEM: NUMBER OF ATOMS
1         
ITEM: BOX BOUNDS xy xz yz pp pp pp
    0.0000000000000000      5.1518654972966385      1.2879663743241596
    0.0000000000000000      2.9744309316929600      1.2879663743241596
    0.0000000000000000      2.1032402819711127      0.7436077329232399
ITEM: ATOMS id type x y z
1      1          0.0000000000000000     0.0000000000000000     0.0000000000000000
ITEM: TIMESTEP energy, energy_weight, force_weight, nsims
24       -2013.8107083300430986    1    1   497
ITEM: NUMBER OF ATOMS
1         
ITEM: BOX BOUNDS xy xz yz pp pp pp
    0.0000000000000000      5.3065462991804875      1.3266365747951221
    0.0000000000000000      3.0637359342990669      1.3266365747951221
    0.0000000000000000      2.1663884549077728      0.7659339835747667
ITEM: ATOMS id type x y z
1      1          0.0000000000000000     0.0000000000000000     0.0000000000000000
ITEM: TIMESTEP energy, energy_weight, force_weight, nsims
25       -2013.8125011528775303    1    1   497
ITEM: NUMBER OF ATOMS
1         
ITEM: BOX BOUNDS xy xz yz pp pp pp
    0.0000000000000000      5.3121813010706109      1.3280453252676527
    0.0000000000000000      3.0669893041572127      1.3280453252676527
    0.0000000000000000      2.1686889347961760      0.7667473260393033
ITEM: ATOMS id type x y z
1      1          0.0000000000000000     0.0000000000000000     0.0000000000000000
ITEM: TIMESTEP energy, energy_weight, force_weight, nsims
26       -2013.8141926132611843    1    1   497
ITEM: NUMBER OF ATOMS
1         
ITEM: BOX BOUNDS xy xz yz pp pp pp
    0.0000000000000000      5.3178163029607326      1.3294540757401829
    0.0000000000000000      3.0702426740153594      1.3294540757401829
    0.0000000000000000      2.1709894146845792      0.7675606685038399
ITEM: ATOMS id type x y z
1      1          0.0000000000000000     0.0000000000000000     0.0000000000000000
ITEM: TIMESTEP energy, energy_weight, force_weight, nsims
27       -2013.8157886977010094    1    1   497
ITEM: NUMBER OF ATOMS
1         
ITEM: BOX BOUNDS xy xz yz pp pp pp
    0.0000000000000000      5.3234513048508543      1.3308628262127136
    0.0000000000000000      3.0734960438735062      1.3308628262127136
    0.0000000000000000      2.1732898945729824      0.7683740109683764
ITEM: ATOMS id type x y z
1      1          0.0000000000000000     0.0000000000000000     0.0000000000000000
ITEM: TIMESTEP energy, energy_weight, force_weight, nsims
28       -2013.8172838278615018    1    1   497
ITEM: NUMBER OF ATOMS
1         
ITEM: BOX BOUNDS xy xz yz pp pp pp
    0.0000000000000000      5.3290754701988803      1.3322688675497198
    0.0000000000000000      3.0767431572511552      1.3322688675497198
    0.0000000000000000      2.1755859504616000      0.7691857893127887
ITEM: ATOMS id type x y z
1      1          0.0000000000000000     0.0000000000000000     0.0000000000000000
ITEM: TIMESTEP energy, energy_weight, force_weight, nsims
29       -2013.8186869835033121    1    1   497
ITEM: NUMBER OF ATOMS
1         
ITEM: BOX BOUNDS xy xz yz pp pp pp
    0.0000000000000000      5.3346887990048089      1.3336721997512024
    0.0000000000000000      3.0799840141483079      1.3336721997512024
    0.0000000000000000      2.1778775823504315      0.7699960035370770
ITEM: ATOMS id type x y z
1      1          0.0000000000000000     0.0000000000000000     0.0000000000000000
ITEM: TIMESTEP energy, energy_weight, force_weight, nsims
30       -2013.8199963958852550    1    1   497
ITEM: NUMBER OF ATOMS
1         
ITEM: BOX BOUNDS xy xz yz pp pp pp
    0.0000000000000000      5.3403021278107392      1.3350755319526848
    0.0000000000000000      3.0832248710454611      1.3350755319526848
    0.0000000000000000      2.1801692142392635      0.7708062177613653
ITEM: ATOMS id type x y z
1      1          0.0000000000000000     0.0000000000000000     0.0000000000000000
ITEM: TIMESTEP energy, energy_weight, force_weight, nsims
31       -2013.8212117928931093    1    1   497
ITEM: NUMBER OF ATOMS
1         
ITEM: BOX BOUNDS xy xz yz pp pp pp
    0.0000000000000000      5.3459154566166678      1.3364788641541669
    0.0000000000000000      3.0864657279426133      1.3364788641541669
    0.0000000000000000      2.1824608461280954      0.7716164319856534
ITEM: ATOMS id type x y z
1      1          0.0000000000000000     0.0000000000000000     0.0000000000000000
ITEM: TIMESTEP energy, energy_weight, force_weight, nsims
32       -2013.8223356235534993    1    1   497
ITEM: NUMBER OF ATOMS
1         
ITEM: BOX BOUNDS xy xz yz pp pp pp
    0.0000000000000000      5.3515179488805007      1.3378794872201250
    0.0000000000000000      3.0897003283592710      1.3378794872201250
    0.0000000000000000      2.1847480540171431      0.7724250820898177
ITEM: ATOMS id type x y z
1      1          0.0000000000000000     0.0000000000000000     0.0000000000000000
ITEM: TIMESTEP energy, energy_weight, force_weight, nsims
33       -2013.8233733301449320    1    1   497
ITEM: NUMBER OF ATOMS
1         
ITEM: BOX BOUNDS xy xz yz pp pp pp
    0.0000000000000000      5.3571096046022380      1.3392774011505595
    0.0000000000000000      3.0929286722954314      1.3392774011505595
    0.0000000000000000      2.1870308379064038      0.7732321680738579
ITEM: ATOMS id type x y z
1      1          0.0000000000000000     0.0000000000000000     0.0000000000000000
ITEM: TIMESTEP energy, energy_weight, force_weight, nsims
34       -2013.7234205659303825    1    1   497
ITEM: NUMBER OF ATOMS
1         
ITEM: BOX BOUNDS xy xz yz pp pp pp
    0.0000000000000000      5.1576738838603031      1.2894184709650758
    0.0000000000000000      2.9777844052390483      1.2894184709650758
    0.0000000000000000      2.1056115458560809      0.7444461013097621
ITEM: ATOMS id type x y z
1      1          0.0000000000000000     0.0000000000000000     0.0000000000000000
ITEM: TIMESTEP energy, energy_weight, force_weight, nsims
35       -2013.8243205588444198    1    1   497
ITEM: NUMBER OF ATOMS
1         
ITEM: BOX BOUNDS xy xz yz pp pp pp
    0.0000000000000000      5.3627012603239734      1.3406753150809936
    0.0000000000000000      3.0961570162315915      1.3406753150809936
    0.0000000000000000      2.1893136217956655      0.7740392540578979
ITEM: ATOMS id type x y z
1      1          0.0000000000000000     0.0000000000000000     0.0000000000000000
ITEM: TIMESTEP energy, energy_weight, force_weight, nsims
36       -2013.8251835682724504    1    1   497
ITEM: NUMBER OF ATOMS
1         
ITEM: BOX BOUNDS xy xz yz pp pp pp
    0.0000000000000000      5.3682820795036132      1.3420705198759035
    0.0000000000000000      3.0993791036872551      1.3420705198759035
    0.0000000000000000      2.1915919816851415      0.7748447759218138
ITEM: ATOMS id type x y z
1      1          0.0000000000000000     0.0000000000000000     0.0000000000000000
ITEM: TIMESTEP energy, energy_weight, force_weight, nsims
37       -2013.8259578685494944    1    1   497
ITEM: NUMBER OF ATOMS
1         
ITEM: BOX BOUNDS xy xz yz pp pp pp
    0.0000000000000000      5.3738628986832548      1.3434657246708137
    0.0000000000000000      3.1026011911429192      1.3434657246708137
    0.0000000000000000      2.1938703415746175      0.7756502977857299
ITEM: ATOMS id type x y z
1      1          0.0000000000000000     0.0000000000000000     0.0000000000000000
ITEM: TIMESTEP energy, energy_weight, force_weight, nsims
38       -2013.8266508067517861    1    1   497
ITEM: NUMBER OF ATOMS
1         
ITEM: BOX BOUNDS xy xz yz pp pp pp
    0.0000000000000000      5.3794328813207972      1.3448582203301995
    0.0000000000000000      3.1058170221180865      1.3448582203301995
    0.0000000000000000      2.1961442774643078      0.7764542555295216
ITEM: ATOMS id type x y z
1      1          0.0000000000000000     0.0000000000000000     0.0000000000000000
ITEM: TIMESTEP energy, energy_weight, force_weight, nsims
39       -2013.8272597977972964    1    1   497
ITEM: NUMBER OF ATOMS
1         
ITEM: BOX BOUNDS xy xz yz pp pp pp
    0.0000000000000000      5.3849920274162439      1.3462480068540610
    0.0000000000000000      3.1090265966127575      1.3462480068540610
    0.0000000000000000      2.1984137893542139      0.7772566491531894
ITEM: ATOMS id type x y z
1      1          0.0000000000000000     0.0000000000000000     0.0000000000000000
ITEM: TIMESTEP energy, energy_weight, force_weight, nsims
40       -2013.8277893315662368    1    1   497
ITEM: NUMBER OF ATOMS
1         
ITEM: BOX BOUNDS xy xz yz pp pp pp
    0.0000000000000000      5.3905511735116924      1.3476377933779229
    0.0000000000000000      3.1122361711074289      1.3476377933779229
    0.0000000000000000      2.2006833012441191      0.7780590427768571
ITEM: ATOMS id type x y z
1      1          0.0000000000000000     0.0000000000000000     0.0000000000000000
ITEM: TIMESTEP energy, energy_weight, force_weight, nsims
41       -2013.8282360066339152    1    1   497
ITEM: NUMBER OF ATOMS
1         
ITEM: BOX BOUNDS xy xz yz pp pp pp
    0.0000000000000000      5.3961103196071392      1.3490275799017850
    0.0000000000000000      3.1154457456020994      1.3490275799017850
    0.0000000000000000      2.2029528131340239      0.7788614364005249
ITEM: ATOMS id type x y z
1      1          0.0000000000000000     0.0000000000000000     0.0000000000000000
ITEM: TIMESTEP energy, energy_weight, force_weight, nsims
42       -2013.8286078503620047    1    1   497
ITEM: NUMBER OF ATOMS
1         
ITEM: BOX BOUNDS xy xz yz pp pp pp
    0.0000000000000000      5.4016586291604902      1.3504146572901228
    0.0000000000000000      3.1186490636162740      1.3504146572901228
    0.0000000000000000      2.2052179010241435      0.7796622659040685
ITEM: ATOMS id type x y z
1      1          0.0000000000000000     0.0000000000000000     0.0000000000000000
ITEM: TIMESTEP energy, energy_weight, force_weight, nsims
43       -2013.8288991483573227    1    1   497
ITEM: NUMBER OF ATOMS
1         
ITEM: BOX BOUNDS xy xz yz pp pp pp
    0.0000000000000000      5.4072069387138413      1.3518017346784601
    0.0000000000000000      3.1218523816304486      1.3518017346784601
    0.0000000000000000      2.2074829889142640      0.7804630954076121
ITEM: ATOMS id type x y z
1      1          0.0000000000000000     0.0000000000000000     0.0000000000000000
ITEM: TIMESTEP energy, energy_weight, force_weight, nsims
44       -2013.8291149347285227    1    1   497
ITEM: NUMBER OF ATOMS
1         
ITEM: BOX BOUNDS xy xz yz pp pp pp
    0.0000000000000000      5.4127444117250949      1.3531861029312739
    0.0000000000000000      3.1250494431641260      1.3531861029312739
    0.0000000000000000      2.2097436528045975      0.7812623607910316
ITEM: ATOMS id type x y z
1      1          0.0000000000000000     0.0000000000000000     0.0000000000000000
ITEM: TIMESTEP energy, energy_weight, force_weight, nsims
45       -2013.7284322248131048    1    1   497
ITEM: NUMBER OF ATOMS
1         
ITEM: BOX BOUNDS xy xz yz pp pp pp
    0.0000000000000000      5.1634822704239678      1.2908705676059919
    0.0000000000000000      2.9811378787851370      1.2908705676059919
    0.0000000000000000      2.1079828097410500      0.7452844696962844
ITEM: ATOMS id type x y z
1      1          0.0000000000000000     0.0000000000000000     0.0000000000000000
ITEM: TIMESTEP energy, energy_weight, force_weight, nsims
46       -2013.8292575224445500    1    1   497
ITEM: NUMBER OF ATOMS
1         
ITEM: BOX BOUNDS xy xz yz pp pp pp
    0.0000000000000000      5.4182710481942546      1.3545677620485637
    0.0000000000000000      3.1282402482173080      1.3545677620485637
    0.0000000000000000      2.2119998926951467      0.7820600620543271
ITEM: ATOMS id type x y z
1      1          0.0000000000000000     0.0000000000000000     0.0000000000000000
ITEM: TIMESTEP energy, energy_weight, force_weight, nsims
47       -2013.8293243264220109    1    1   497
ITEM: NUMBER OF ATOMS
1         
ITEM: BOX BOUNDS xy xz yz pp pp pp
    0.0000000000000000      5.4237976846634126      1.3559494211658532
    0.0000000000000000      3.1314310532704894      1.3559494211658532
    0.0000000000000000      2.2142561325856960      0.7828577633176225
ITEM: ATOMS id type x y z
1      1          0.0000000000000000     0.0000000000000000     0.0000000000000000
ITEM: TIMESTEP energy, energy_weight, force_weight, nsims
48       -2013.8293199725985687    1    1   497
ITEM: NUMBER OF ATOMS
1         
ITEM: BOX BOUNDS xy xz yz pp pp pp
    0.0000000000000000      5.4293134845904731      1.3573283711476183
    0.0000000000000000      3.1346156018431754      1.3573283711476183
    0.0000000000000000      2.2165079484764600      0.7836539004607938
ITEM: ATOMS id type x y z
1      1          0.0000000000000000     0.0000000000000000     0.0000000000000000
ITEM: TIMESTEP energy, energy_weight, force_weight, nsims
49       -2013.8292439167464636    1    1   497
ITEM: NUMBER OF ATOMS
1         
ITEM: BOX BOUNDS xy xz yz pp pp pp
    0.0000000000000000      5.4348292845175354      1.3587073211293841
    0.0000000000000000      3.1378001504158606      1.3587073211293841
    0.0000000000000000      2.2187597643672232      0.7844500376039651
ITEM: ATOMS id type x y z
1      1          0.0000000000000000     0.0000000000000000     0.0000000000000000
ITEM: TIMESTEP energy, energy_weight, force_weight, nsims
50       -2013.8290973833779844    1    1   497
ITEM: NUMBER OF ATOMS
1         
ITEM: BOX BOUNDS xy xz yz pp pp pp
    0.0000000000000000      5.4403450844445960      1.3600862711111490
    0.0000000000000000      3.1409846989885453      1.3600862711111490
    0.0000000000000000      2.2210115802579873      0.7852461747471363
ITEM: ATOMS id type x y z
1      1          0.0000000000000000     0.0000000000000000     0.0000000000000000
ITEM: TIMESTEP energy, energy_weight, force_weight, nsims
51       -2013.8288809167222553    1    1   497
ITEM: NUMBER OF ATOMS
1         
ITEM: BOX BOUNDS xy xz yz pp pp pp
    0.0000000000000000      5.4458500478295626      1.3614625119573909
    0.0000000000000000      3.1441629910807345      1.3614625119573909
    0.0000000000000000      2.2232589721489648      0.7860407477701836
ITEM: ATOMS id type x y z
1      1          0.0000000000000000     0.0000000000000000     0.0000000000000000
ITEM: TIMESTEP energy, energy_weight, force_weight, nsims
52       -2013.8285973739741621    1    1   497
ITEM: NUMBER OF ATOMS
1         
ITEM: BOX BOUNDS xy xz yz pp pp pp
    0.0000000000000000      5.4513441746724318      1.3628360436681082
    0.0000000000000000      3.1473350266924269      1.3628360436681082
    0.0000000000000000      2.2255019400401581      0.7868337566731067
ITEM: ATOMS id type x y z
1      1          0.0000000000000000     0.0000000000000000     0.0000000000000000
ITEM: TIMESTEP energy, energy_weight, force_weight, nsims
53       -2013.8282463469640788    1    1   497
ITEM: NUMBER OF ATOMS
1         
ITEM: BOX BOUNDS xy xz yz pp pp pp
    0.0000000000000000      5.4568383015152992      1.3642095753788248
    0.0000000000000000      3.1505070623041189      1.3642095753788248
    0.0000000000000000      2.2277449079313509      0.7876267655760296
ITEM: ATOMS id type x y z
1      1          0.0000000000000000     0.0000000000000000     0.0000000000000000
ITEM: TIMESTEP energy, energy_weight, force_weight, nsims
54       -2013.8278309650020219    1    1   497
ITEM: NUMBER OF ATOMS
1         
ITEM: BOX BOUNDS xy xz yz pp pp pp
    0.0000000000000000      5.4623215918160728      1.3655803979540184
    0.0000000000000000      3.1536728414353146      1.3655803979540184
    0.0000000000000000      2.2299834518227586      0.7884182103588288
ITEM: ATOMS id type x y z
1      1          0.0000000000000000     0.0000000000000000     0.0000000000000000
ITEM: TIMESTEP energy, energy_weight, force_weight, nsims
55       -2013.8273490511767250    1    1   497
ITEM: NUMBER OF ATOMS
1         
ITEM: BOX BOUNDS xy xz yz pp pp pp
    0.0000000000000000      5.4678048821168463      1.3669512205292116
    0.0000000000000000      3.1568386205665107      1.3669512205292116
    0.0000000000000000      2.2322219957141658      0.7892096551416277
ITEM: ATOMS id type x y z
1      1          0.0000000000000000     0.0000000000000000     0.0000000000000000
ITEM: TIMESTEP energy, energy_weight, force_weight, nsims
56       -2013.7332946291878670    1    1   497
ITEM: NUMBER OF ATOMS
1         
ITEM: BOX BOUNDS xy xz yz pp pp pp
    0.0000000000000000      5.1692798204455350      1.2923199551113840
    0.0000000000000000      2.9844850958507303      1.2923199551113840
    0.0000000000000000      2.1103496496262339      0.7461212739626826
ITEM: ATOMS id type x y z
1      1          0.0000000000000000     0.0000000000000000     0.0000000000000000
ITEM: TIMESTEP energy, energy_weight, force_weight, nsims
57       -2013.8268034626842109    1    1   497
ITEM: NUMBER OF ATOMS
1         
ITEM: BOX BOUNDS xy xz yz pp pp pp
    0.0000000000000000      5.4732773358755225      1.3683193339688806
    0.0000000000000000      3.1599981432172100      1.3683193339688806
    0.0000000000000000      2.2344561156057878      0.7899995358043026
ITEM: ATOMS id type x y z
1      1          0.0000000000000000     0.0000000000000000     0.0000000000000000
ITEM: TIMESTEP energy, energy_weight, force_weight, nsims
58       -2013.8261973288356330    1    1   497
ITEM: NUMBER OF ATOMS
1         
ITEM: BOX BOUNDS xy xz yz pp pp pp
    0.0000000000000000      5.4787497896341968      1.3696874474085492
    0.0000000000000000      3.1631576658679093      1.3696874474085492
    0.0000000000000000      2.2366902354974103      0.7907894164669773
ITEM: ATOMS id type x y z
1      1          0.0000000000000000     0.0000000000000000     0.0000000000000000
ITEM: TIMESTEP energy, energy_weight, force_weight, nsims
59       -2013.8255269760918509    1    1   497
ITEM: NUMBER OF ATOMS
1         
ITEM: BOX BOUNDS xy xz yz pp pp pp
    0.0000000000000000      5.4842114068507790      1.3710528517126948
    0.0000000000000000      3.1663109320381131      1.3710528517126948
    0.0000000000000000      2.2389199313892467      0.7915777330095283
ITEM: ATOMS id type x y z
1      1          0.0000000000000000     0.0000000000000000     0.0000000000000000
ITEM: TIMESTEP energy, energy_weight, force_weight, nsims
60       -2013.8247964861625405    1    1   497
ITEM: NUMBER OF ATOMS
1         
ITEM: BOX BOUNDS xy xz yz pp pp pp
    0.0000000000000000      5.4896730240673577      1.3724182560168396
    0.0000000000000000      3.1694641982083160      1.3724182560168396
    0.0000000000000000      2.2411496272810836      0.7923660495520790
ITEM: ATOMS id type x y z
1      1          0.0000000000000000     0.0000000000000000     0.0000000000000000
ITEM: TIMESTEP energy, energy_weight, force_weight, nsims
61       -2013.8240093965293909    1    1   497
ITEM: NUMBER OF ATOMS
1         
ITEM: BOX BOUNDS xy xz yz pp pp pp