ITEM: TIMESTEP energy, energy_weight, force_weight, nsims
1        -108743.0432336216472322    1    1   497
ITEM: NUMBER OF ATOMS
54        
ITEM: BOX BOUNDS xy xz yz pp pp pp
   -1.1118201475759848     11.3014116549564800      3.6106141066149804
   -0.6680534382391330      6.7905743137130283     -1.1118201475759848
    0.0000000000000000     31.8313958280453413     -0.6680534382391330
ITEM: ATOMS id type x y z
1      1         -0.3578365917627286     1.2731416809579592    10.1158202394986763
2      1          2.1492456710876016     1.2745279702269139    10.1077477975166836
3      1          4.6892417385740677     1.2811140837341453    10.0712212708040028
4      1          0.7906471398852724     3.5580695344249627    10.1469417951997549
5      1          3.3368798930901162     3.5624404444388764     9.9654996558403148
6      1          5.9114548692943609     3.5384558939765123     9.7683678214772289
7      1          1.9379615896702613     5.7852330592236676     9.9697395977646099
8      1          4.5729596642909742     5.8756181071213982     9.8925166314857726
9      1          7.1723357333673947     5.8303740276850577    10.0742834510826604
10     1         -0.4117829719644824    -0.2979761308867531    12.5277583136000743
11     1          2.0902793346284176    -0.2863001195502422    12.3264915809189279
12     1          4.6091413433377690    -0.3054441542153540    12.4766243593419048
13     1          0.7604571324886856     2.0108452890433699    12.4327129487971142
14     1          3.3051989438177203     1.9510182148162982    12.4187389660286041
15     1          5.9365118731034894     1.9807399969807724    12.1322882349720231
16     1          1.9040855223367807     4.2347958057887753    12.5620025292318864
17     1          4.5261289210860518     4.2993774222823191    12.2345370446508692
18     1          7.0875797653643211     4.2997331947530402    12.4276708556979525
19     1         -0.5372428960447140     1.2420729270965474    14.8532391334929219
20     1          1.9996447898650549     1.2302574891190088    14.9625290479289337
21     1          4.6282209450201508     1.2417062601004294    14.9053630441613461
22     1          0.6413533858229999     3.4647130454589639    14.5526743615261847
23     1          3.1984629963355924     3.5087720548047332    14.8005645396766710
24     1          5.7428679475372526     3.4642038564726896    14.7010850614348652
25     1          1.8591250688630385     5.7707371128111236    14.8319025488693814
26     1          4.4447244585951404     5.7349606711537930    14.8375144239538663
27     1          6.9510030632403659     5.6743942490045951    14.6656376190407531
28     1         -0.6215838811957625    -0.3463410426573013    17.0293956924168235
29     1          1.9596706412695124    -0.4135000615668503    17.2962446499224960
30     1          4.4592838904641621    -0.4036172148279062    17.0498632799342573
31     1          0.6167703894106142     1.9352991865063089    17.1285759555378476
32     1          3.2001254105946302     1.9046155350641625    17.1746391684406134
33     1          5.7632696692594516     1.8596512766613909    16.9153629000024353
34     1          1.8138417636243547     4.1912376421444693    17.2984919464679514
35     1          4.3162577322846767     4.1266224968345515    17.0420136577230608
36     1          6.9219138231570447     4.1668283476344525    17.3058640977417291
37     1         -0.7313431718440363     1.0994398174945041    19.5618601636815335
38     1          1.9103408386069154     1.1482046785567197    19.4846085491464507
39     1          4.4739311223007130     1.1354808348220193    19.5010940290457988
40     1          0.4861381688829785     3.4032349226611198    19.5992111235461621
41     1          3.0319017871304941     3.4171784326101142    19.4690238977490395
42     1          5.5578473231485725     3.3347800565175114    19.6764977526166547
43     1          1.6472918737497009     5.5865416934305241    19.5733608469942091
44     1          4.3042008550616426     5.6458779659777623    19.3049266859763016
45     1          6.7444873381039407     5.5830505860855810    19.4061823561053117
46     1         -0.7121684887062053    -0.4533164658220242    21.7180998182358280
47     1          1.8306576957523890    -0.5121873634013262    21.8431876544212997
48     1          4.3720689758677294    -0.4507926356098047    21.6885698323261522
49     1          0.3925188514421822     1.8211221658737162    21.9483299379809154
50     1          2.9618437758683833     1.7770975694045756    21.7770038162156254
51     1          5.5454940162531949     1.8210344094437907    21.9129079607034676
52     1          1.6054650002986040     4.0354639735958626    21.7765518103948708
53     1          4.2011038876178102     4.0503315000090501    21.7161644693694846
54     1          6.7883613068683868     4.0441392172902821    22.0653453321843926
ITEM: TIMESTEP energy, energy_weight, force_weight, nsims
2        -108742.3078773424495012    1    1   497
ITEM: NUMBER OF ATOMS
54        
ITEM: BOX BOUNDS xy xz yz pp pp pp
    0.0000000000000000     12.6092625412421491      4.0290088748398558
    0.0000000000000000      7.0481621959996295      0.8894561180607952
    0.0000000000000000     31.8415092268214117      0.4971792983100836
ITEM: ATOMS id type x y z
1      1          0.2492512016805537     1.5815351424023376    10.1075489825485239
2      1          2.9077014104289844     1.6300352977114503    10.2234266029267715
3      1          5.4076188860742516     1.6145178902094426     9.8323969488667924
4      1          1.7016175457955147     3.7807563804058790     9.8600926935922804
5      1          4.2511385052825537     3.8296031139618347    10.1293190224069001
6      1          6.7221965068813434     3.7593853756279101    10.1213236194400462
7      1          2.9550501507844804     5.9724607569036268    10.0836519298737937
8      1          5.5983042454141518     6.0274123193143989     9.8939688752586967
9      1          8.1285814121443050     5.9716621151988818     9.8929181054542106
10     1          0.3028122653135535     0.2037639331269306    12.2975793298109970
11     1          2.9351158806878352     0.1825456805926419    12.1727446928872443
12     1          5.4699320947338439     0.1650010811106594    12.3888721209152166
13     1          1.7041778897287692     2.3521511416875760    12.2848395419693457
14     1          4.2902319843693366     2.3873223801794068    12.4991679247260024
15     1          6.8005793523833180     2.3956348769933506    12.2621174409850866
16     1          3.0363798596407352     4.5906431505023049    12.4686159966228676
17     1          5.5055690369828989     4.5079904080233133    12.1661407638735994
18     1          8.1832022652322536     4.5193724797416186    12.1766548302202970
19     1          0.4549683446097827     1.6416340872364092    14.5973705435292462
20     1          2.9935733767246107     1.6737557287379929    14.7810642102587781
21     1          5.5656549336113876     1.6914661354571354    14.4937009577885600
22     1          1.8425492711690188     3.9183930975612586    14.8066615995262207
23     1          4.3358421036741666     3.8580941960270603    14.8246361314847590
24     1          6.9332599469063032     3.8358294017065462    14.5474812668726603
25     1          3.1998735321304896     6.0929481269863421    14.6724560064370131
26     1          5.7164938027944689     6.0428615368613832    14.7419087063625547
27     1          8.2396295750754511     6.0321338873971300    14.8726149175877360
28     1          0.3994287529428271     0.2327050379369205    17.1624779487290589
29     1          3.0409507947567280     0.2456588622840261    16.8537649643222593
30     1          5.6052730991337159     0.2462016535445576    17.1045136653325542
31     1          1.7655680859577887     2.4205754341883869    17.2427376568861881
32     1          4.3945200449710669     2.4133053951702821    17.1663944543639602
33     1          6.9548756027829439     2.3981684233215863    16.8997090779856407
34     1          3.1589745171061114     4.6350771737244516    17.3566219987868351
35     1          5.7744939413059466     4.6331241350447065    17.2963619425750750
36     1          8.3351829444003425     4.6814568332098609    17.3520495580618643
37     1          0.5746970055328614     1.8054113971418961    19.6348278534002212
38     1          3.2061660076433665     1.7845597385357652    19.3767683418714505
39     1          5.7337155426945818     1.7206426437970093    19.3346993398809701
40     1          1.9532611032688600     3.9381876583446873    19.5840374620325193
41     1          4.4326812054653786     3.9276734111981080    19.4332551792398291
42     1          7.0886927546730938     3.9120138225705512    19.6237247191328308
43     1          3.2190920951937172     6.1033127745394271    19.2847941424697744
44     1          5.7854115701225295     6.1172087431588924    19.5876291842733075
45     1          8.4501713957826148     6.1676391364463710    19.5151897507822873
46     1          0.6526371294525871     0.3461768764163823    21.7695272100792465
47     1          3.2169606971522815     0.3582852788966743    22.0492994467497923
48     1          5.6687545793593159     0.2991142697549192    21.6095713884783116
49     1          1.9775817992466111     2.5423851752601068    21.8866116236571919
50     1          4.5406680290665875     2.5468523301564079    22.0094593504051907
51     1          7.0307708170016978     2.5277021360353653    22.0896967695058599
52     1          3.2812985462697832     4.7390011252831759    21.9400193870833391
53     1          5.8165622401990973     4.6921568328233647    21.7502439920914838
54     1          8.4124541776246922     4.7207334438705066    22.1004814886809839
ITEM: TIMESTEP energy, energy_weight, force_weight, nsims
3        -108709.3985744554956909    1    1   497
ITEM: NUMBER OF ATOMS
54        
ITEM: BOX BOUNDS xy xz yz pp pp pp
    0.0000000000000000     13.0397994186080659      4.1770178085638019
    0.0000000000000000      7.2888153061587344      0.8894563284616648
    0.0000000000000000     31.8415462719276370      0.4971766979330850
ITEM: ATOMS id type x y z
1      1          0.5350955099391846     1.7552164683075682    10.2203052889310726
2      1          3.0094997968036932     1.8496360712830293    10.7127029604801631
3      1          5.6177903077799387     1.5134228998500396     9.1975834800684044
4      1          1.6859011359009906     4.0642866640357287    10.0073012651450153
5      1          4.6567784269902361     4.0713558246355692     9.7697919873480803
6      1          7.0215907427319078     3.8988569976714103    10.4486887795664760
7      1          3.2791427695331254     6.3801014730989225    10.7312092671734085
8      1          5.8307682310937938     6.3584419217038901     9.5505088106371954
9      1          8.3353662241331357     6.0297263472470632     9.1818123621999170
10     1          0.1335478346814236     0.0486094139574657    12.0567409969274824
11     1          2.9559906507984071     0.1533022684153213    12.1393252313383559
12     1          5.5148012451154660     0.2069882182323710    12.6425458444652712
13     1          1.7446142401852172     2.3614802674089050    12.0440871664390183
14     1          4.3769147083229818     2.5987159174827701    12.1233153018728288
15     1          7.0976687308344939     2.3089534243342542    12.6938234705815844
16     1          3.0007302102373128     4.7725655353495480    12.6571260885031869
17     1          5.8081649725780435     4.6530017642422923    12.3411847139292394
18     1          8.4447264687214929     4.6452257772664307    12.8546933306566178
19     1          0.6512986636632833     1.8601229476763912    14.5548185632175304
20     1          3.0513374473142827     1.8422230600736216    14.4049817989257214
21     1          5.7108279460368054     1.8480498092743607    15.1171689277714165
22     1          2.0884245670365180     4.1607303923742753    14.4292195839479120
23     1          4.6436031126241835     3.9497316792278605    15.2877504594593869
24     1          7.3724125914626901     4.0473438680000804    14.1600534408474257
25     1          3.1944869455966778     6.1455580838763284    15.2519955871506401
26     1          5.7718622855908643     6.2103564836456400    15.0255544308378273
27     1          8.6306854487732370     6.4243817281590472    14.2636849373440420
28     1          0.5398726217109040     0.2119329615073650    17.7656341171037795
29     1          3.0774075604506614     0.4353465691764793    17.7663696568226612
30     1          5.6886771531771476     0.3874535204348963    16.4816173953790432
31     1          1.7901922271715076     2.5420761937889216    17.5210910417353780
32     1          4.6281012535047470     2.5710616151758536    17.2498488298179566
33     1          7.1133541333297163     2.3829997202389612    17.0786845978332131
34     1          3.3050866083483919     4.6555989973045397    17.1111884482675976
35     1          5.9011098122584675     4.7565720218500944    17.5878946058138794
36     1          8.7308650563910124     4.8168464341201442    17.6705807331728231
37     1          0.6852405293833793     1.7278966883538520    19.2287404316803467
38     1          3.2371364643837559     1.8574238598008941    18.7217688844025929
39     1          5.9832774108630691     1.9883119620529794    20.1739758376902785
40     1          2.0250419348162074     4.1542549357209584    19.1406062157542749
41     1          4.7762765659487059     3.9702369391590047    19.8398242828034164
42     1          7.0628086940876100     4.0143715915879783    19.2881885985700379
43     1          3.5367441374339212     6.2865099666787270    19.8912133543316827
44     1          6.0312154743153714     6.2388686171347816    19.1597238801359424
45     1          8.8901047377692297     6.3679155523935043    19.0721882852797862
46     1          0.4713639218529153     0.3707784882327308    22.3392837722016679
47     1          3.3977549091561809     0.3119468566274424    22.6281630165991032
48     1          5.9457554726106814     0.2495571534242493    21.2342834077723346
49     1          1.9427260318032344     2.5586373847105017    22.3167367732865145
50     1          4.7124088990892679     2.7132245759870477    21.9279610457701608
51     1          7.4015977900057806     2.5896653400068228    21.9699154671380548
52     1          3.5252379331455512     4.9591755139689591    22.6160504923972638
53     1          6.2333659902102454     5.0282590062355226    21.2327390927781465
54     1          8.5398677757669272     4.8350640193631040    21.7123332785712932
ITEM: TIMESTEP energy, energy_weight, force_weight, nsims
4        -108742.7186023460672004    1    1   497
ITEM: NUMBER OF ATOMS
54        
ITEM: BOX BOUNDS xy xz yz pp pp pp
   -1.1118201475759848     11.3014116549564800      3.6106141066149804
   -0.6680534382391330      6.7905743137130283     -1.1118201475759848
    0.0000000000000000     31.8313958280453413     -0.6680534382391330
ITEM: ATOMS id type x y z
1      1         -0.3412247802910445     1.3145729206638470     9.7733717169013996
2      1          2.1332489316205230     1.3230565488449038     9.7824882286665495
3      1          4.6624757838314066     1.2543036362802598     9.7619283301012167
4      1          0.8210967864959678     3.5482845334425246     9.9326719373228514
5      1          3.2832871410170643     3.5220408057675558    10.1913975226132045
6      1          5.8785534017380563     3.5179662462307646     9.9073245968249797
7      1          1.9881888686384053     5.8369478825316747    10.0936369397461121
8      1          4.6334257112726407     5.8654652220218324     9.9442999462188357
9      1          7.1710236053148071     5.8498500720007396     9.9945267056959093
10     1         -0.3865847171248658    -0.2552548828064576    12.2047651401328991
11     1          2.1853018889826821    -0.2220518070931065    12.3664845466372846
12     1          4.6649036218954603    -0.3113909635776753    12.5409619765895499
13     1          0.7649817600713459     2.0014562051135880    12.5465611191157009
14     1          3.3782544117112940     2.0139875239811746    12.2163390356559756
15     1          5.9057909582552055     1.9682112212815082    12.4225269021321409
16     1          1.9562473201650166     4.2615762998349993    12.5275195781313649
17     1          4.5844299876004388     4.3198693512908930    12.1815377705971759
18     1          7.0541855594215477     4.2301949537841033    12.1370215635316523
19     1         -0.5497457723318236     1.1534578503751955    14.9021990034160368
20     1          2.0184756001602007     1.1833371714149981    14.4780424708677504
21     1          4.5274256087143252     1.1915356710046634    14.4905203780323451
22     1          0.6862268049035013     3.4774626021416637    14.6003546093370158
23     1          3.1172418405087772     3.4198051760730301    14.8177534934238171
24     1          5.7851610502946844     3.4139737884191264    14.9833977110337990
25     1          1.8291650074225849     5.6768817995006016    14.9183279716821087
26     1          4.4515844275504035     5.7105718101515084    14.5307743611964906
27     1          6.9382044017297577     5.7074002113672000    14.5749913531412290
28     1         -0.5520154003492599    -0.3639941946188313    16.9925604011646101
29     1          1.9541678760197501    -0.3086588553854266    16.9908956191628029
30     1          4.5532267466880745    -0.4085624194502864    17.2371528467073105
31     1          0.5566416977498555     1.8523441692557796    17.1211019437974237
32     1          3.1067119247519202     1.8706484726113108    16.9471751969929834
33     1          5.8164237136867056     1.9568846196158705    17.1090219290806829
34     1          1.7556616474958662     4.1435072625143103    17.1547731943043296
35     1          4.3089919912572450     4.1565744373226901    17.2031091688692150
36     1          7.0242113361964789     4.2097916205483381    16.9076628853516304
37     1         -0.7190088107108290     1.1087050162731120    19.6987829128358740
38     1          1.8418874968993577     1.1160359138073590    19.4734675606066361
39     1          4.4534076508880274     1.1531418794153121    19.3774895359059158
40     1          0.4181864263027879     3.3592501448040744    19.3036184156077688
41     1          2.9960947543453376     3.3503521588190290    19.3302612939158429
42     1          5.5745126711364339     3.3524591053478496    19.5436876198033040
43     1          1.6797535578506806     5.6127019723589529    19.4093368474318737
44     1          4.2521911602337994     5.6836365641811799    19.2193320625946882
45     1          6.8745481624201421     5.6742827082264373    19.6470346126382189
46     1         -0.8020763746773772    -0.4479265324945867    21.8789279456570291
47     1          1.7676343112771302    -0.4719364511295727    21.9413652285737371
48     1          4.3647618012730023    -0.4800988017527348    21.6680926953899693
49     1          0.4681627534625274     1.8250955801788000    21.8199952994209845
50     1          2.9805363861777927     1.8280406557502793    21.6005910373970167
51     1          5.5764769145860429     1.8571929778739078    21.8309452995858315
52     1          1.7117381803653995     4.1070823016169049    22.0228026716602123
53     1          4.1474023552037984     4.0632725253231845    21.9804350838130844
54     1          6.8057188187394573     4.1197538910828788    21.9455192257292993
ITEM: TIMESTEP energy, energy_weight, force_weight, nsims
5        -108742.9056477686972357    1    1   497
ITEM: NUMBER OF ATOMS
54        
ITEM: BOX BOUNDS xy xz yz pp pp pp
   -0.8894561180607857     11.3478948353386553      3.6570972869971561
   -0.5302958725532412      6.7656484388588556     -0.8894561180607857
    0.0000000000000000     31.8409785617905676     -0.5302958725532412
ITEM: ATOMS id type x y z
1      1         -0.2936570448968154     1.3368149154127613     9.8891520171337781
2      1          2.2768595292764555     1.3809618209487053     9.8855953798284251
3      1          4.8122347185590018     1.3124064110214457     9.9376203547005346
4      1          0.9428695838649291     3.6263810124569464     9.8569193945356766
5      1          3.4852604136770324     3.5373826688912851    10.2477355654030937
6      1          6.0028222184454894     3.6140379303692391     9.8330227401250525
7      1          2.1432340005643171     5.8926987978706160    10.1331526199506339
8      1          4.7012529987643381     5.8377069659047560     9.8853470201956437
9      1          7.1616299136259478     5.7927703618587740    10.1115294114093235
10     1         -0.3213332159688101    -0.2384787421350827    12.4600340194848780
11     1          2.1744177492425858    -0.2331101532357424    12.1763977665543042
12     1          4.7388017243654597    -0.1944485813446905    12.6062382407470519
13     1          0.8617406369291521     2.0843580004969255    12.2590983401728426
14     1          3.3902251851468184     2.0613510819978846    12.6049868902895721
15     1          5.9891942913510468     2.0340678890448576    12.4315267913785057
16     1          2.0612886562817820     4.3494691544352966    12.2389207120582366
17     1          4.6577631627003386     4.3058941944698388    12.2015139304438431
18     1          7.1882517600607052     4.3559209924469586    12.4317942555984260
19     1         -0.3791608048524300     1.2928271896991648    14.6347219096894747
20     1          2.1629292624534990     1.2800122590285077    14.8073382226686547
21     1          4.6138401293008595     1.2035733004048408    14.8086373345939766
22     1          0.7262402399702448     3.4750520981416346    14.8907201932284146
23     1          3.3428951834995342     3.5441514584856639    14.6989101383721898
24     1          5.9211563777265530     3.4649883557959340    14.6347824075487427
25     1          2.0327193634299672     5.7694974345371142    14.9421401895078514
26     1          4.5835589828547016     5.7277001844246431    14.8532815706354615
27     1          7.1630987428906518     5.7950740124771656    14.9642155399447390
28     1         -0.4091699391839878    -0.2723831944918808    17.0581961017887664
29     1          2.0288472031075448    -0.2822811439106885    17.0725245421415721
30     1          4.6189649000272084    -0.2469900251735992    17.2876581137943113
31     1          0.7843815656616721     2.0042434221363563    17.0230086363801334
32     1          3.3286672445725438     2.0236624573677244    17.1170764393452295
33     1          5.9142728436876952     1.9868272354603556    17.2616344820157579
34     1          1.9551342715340483     4.1949757736052034    16.9096388322108737
35     1          4.4853946805623899     4.1762093492797119    17.0965804014450029
36     1          7.1192303684692542     4.2389651473567342    17.2520662679579395
37     1         -0.6506863776614813     1.1313395414935090    19.4316130914910659
38     1          1.9705272838504164     1.2319115524778068    19.4817849214108776
39     1          4.5797303267991314     1.1852105075479942    19.2784930096852705
40     1          0.7148311539256300     3.4665145074795807    19.2247231491879766
41     1          3.1742929602815955     3.4500089682305735    19.5843670020434004
42     1          5.7801636708379833     3.4037266115305926    19.2999156200616468
43     1          1.8772284125676888     5.6741613909771926    19.4202299416552258
44     1          4.4769482744663529     5.6852249429107102    19.2459738182801168
45     1          6.9631983006469147     5.7314659386829785    19.5626450864685459
46     1         -0.6152354470261573    -0.3365745888276105    21.6244184984973238
47     1          1.8860168334174143    -0.3717920508554219    22.0348518962566615
48     1          4.5372505415643145    -0.3907046723832612    21.9381635807559263
49     1          0.6447208234906154     1.9304234741193933    21.6445006036762422
50     1          3.1708798673164234     1.8483252947356010    21.7312163246914274
51     1          5.7258185072933117     1.9233383160139625    21.9658429434196911
52     1          1.8385896006375537     4.1083747365456107    21.8317510304024225
53     1          4.3143166780816946     4.1002496998786588    21.6252718367227779
54     1          6.9506145637981325     4.1908823641412720    21.6607745278191750
ITEM: TIMESTEP energy, energy_weight, force_weight, nsims
6        -108742.5618855210777838    1    1   497
ITEM: NUMBER OF ATOMS
54        
ITEM: BOX BOUNDS xy xz yz pp pp pp
   -0.6670920885455898     11.3943857065183813      3.7035881581768817
   -0.3946148222054015      6.7403149517346188     -0.6670920885455898
    0.0000000000000000     31.8483847998296312     -0.3946148222054015
ITEM: ATOMS id type x y z
1      1         -0.2391174868729128     1.3235669541977202     9.9140518559541650
2      1          2.3382322043581865     1.3338453527410401    10.1258213210036736
3      1          4.8878055696580400     1.3957655278148633    10.2052225291481271
4      1          1.0248430110254954     3.5932340849208004     9.8339595378595543
5      1          3.5135426209932548     3.6542018744462905    10.1158336675304454
6      1          6.0584318405191580     3.5712858116575390    10.0787939960082458
7      1          2.2164716854005788     5.8733568927603415    10.0365184500249498
8      1          4.7413104526376699     5.8545111304711277    10.0695261160314953
9      1          7.3722291859528344     5.8788616625303476     9.8120701429866308
10     1         -0.3194231982454349    -0.1760454991612539    12.4118187609734445
11     1          2.2239802514644724    -0.1857637409323483    12.4694866313304953
12     1          4.8506558655292320    -0.1267281057381660    12.6088105754758306
13     1          0.9662265324376380     2.0855565754041892    12.2510194509575836
14     1          3.5685873104547765     2.0999880842941239    12.3133212613030114
15     1          6.0723246933227433     2.0800335243607666    12.1884087112795996
16     1          2.2311742510826966     4.3575310480862219    12.5032968766339945
17     1          4.8189410659989651     4.3259915853765269    12.2704819989087603
18     1          7.3060867784557892     4.2923074548717786    12.1505377969141222
19     1         -0.3028876536605005     1.3281819428742463    14.8082122571748638
20     1          2.1924458534887412     1.3100097895124114    14.8596410289496301
21     1          4.7857810229189210     1.3698010290035858    14.5356983677966429
22     1          0.8300220464501876     3.5471723208043251    14.6969244461688220
23     1          3.5189853463868950     3.6017212042894142    14.4879066815660185
24     1          6.0199566645325326     3.5553521836234565    14.8103620231488549
25     1          2.0819655733666043     5.7695431150020378    14.5329116341266573
26     1          4.7472851320359695     5.8347337224727029    14.6707896616020808
27     1          7.1889940898411693     5.7675080128683556    14.6399859038236855
28     1         -0.4272724159342556    -0.2342782571369794    16.9458853994548733
29     1          2.1336193497223919    -0.2307173758688064    17.2054815839582815
30     1          4.7604599531841316    -0.1705555223288543    17.0205921556798287
31     1          0.8324734537885495     1.9940983221988859    17.0952543241660706
32     1          3.4370955401767471     2.0600367622910292    17.1195196085450618
33     1          6.0700272109031834     2.0644553216578774    17.0091203674749316
34     1          2.0890678659798572     4.3264399468228847    17.2791341586463645
35     1          4.6891023059357568     4.2994258592805945    17.0235317615968533
36     1          7.2669746727687823     4.2419988919535596    17.2249855348096972
37     1         -0.4303535687513633     1.2800900917800964    19.5885911188596928
38     1          2.1565759092636267     1.2710114806613388    19.6316819834938627
39     1          4.7046018974329895     1.2502887434036414    19.5899828932754438
40     1          0.7097231114091913     3.4618789767381757    19.6654444562201647
41     1          3.3194761370594237     3.4760369652519771    19.5097568119646745
42     1          5.9218844715715750     3.4853143087051199    19.6164361616901850
43     1          1.9588769689789871     5.7160713481557348    19.3746909968670771
44     1          4.6685346187443919     5.7707121074603380    19.2722793307047482
45     1          7.1635523553820830     5.7799943696168894    19.3965135101319213
46     1         -0.3883327784957010    -0.2207395054076912    21.7838302166653897
47     1          2.1161480935273844    -0.2812062904367458    21.7829129831831558
48     1          4.6802666203345025    -0.2989989836275725    21.7572049669727328
49     1          0.7657671022214032     1.9409151255497281    21.6817848069282562
50     1          3.3819677927888683     1.9646427537814084    21.7413221774730587
51     1          5.8545750757242452     1.9646162059519603    21.8345838026823991
52     1          2.0410059119775044     4.2572250827911526    21.6078519664539321
53     1          4.6008999006526023     4.2514903115582188    21.6005714256886883
54     1          7.1822721084510457     4.2731352358324131    21.7735272641826469
ITEM: TIMESTEP energy, energy_weight, force_weight, nsims
7        -108742.7571349075151375    1    1   497
ITEM: NUMBER OF ATOMS
54        
ITEM: BOX BOUNDS xy xz yz pp pp pp
   -0.4447280590303915     11.4408765776981056      3.7500790293566055
   -0.2610102871956099      6.7145584707452226     -0.4447280590303915
    0.0000000000000000     31.8536376145551472     -0.2610102871956099
ITEM: ATOMS id type x y z
1      1         -0.1099769577346824     1.4323625542167278    10.1400958763917988
2      1          2.3740991533929678     1.3942306544537828    10.2039210100800819