ITEM: TIMESTEP energy, energy_weight, force_weight, nsims
1        -4027.6250911509628168    1    1   990
ITEM: NUMBER OF ATOMS
2         
ITEM: BOX BOUNDS xy xz yz pp pp pp
   -1.2269768283938500      2.4539536567877001     -1.2269768283938500
    0.0000000000000000      2.2654556605952099      0.0000000000000003
    0.0000000000000000      4.7431537729659876      0.0000000000000005
ITEM: ATOMS id type x y z
1      1          0.0000000000000000     0.0000000000000000     0.0000000000000000
2      1         -0.0000001226976828     1.5103038492453285     2.3715768864829938
ITEM: TIMESTEP energy, energy_weight, force_weight, nsims
2        -4027.4024140377955518    1    1   990
ITEM: NUMBER OF ATOMS
2         
ITEM: BOX BOUNDS xy xz yz pp pp pp
   -1.6036824602690172      2.4844879058990439     -1.3590743557728702
   -0.2582710798732183      2.1484551796183289     -0.2446081044961471
    0.0000000000000000      4.4907676530729770     -0.2582710798732183
ITEM: ATOMS id type x y z
1      1          0.0000000000000000     0.0000000000000000     0.0000000000000000
2      1         -0.2001911155823810     1.3031679847574493     2.2453838265364885
ITEM: TIMESTEP energy, energy_weight, force_weight, nsims
3        -4027.4206005022865611    1    1   990
ITEM: NUMBER OF ATOMS
2         
ITEM: BOX BOUNDS xy xz yz pp pp pp
   -1.5958664184762523      2.4878745771715973     -1.3576949554925215
   -0.2510964712721348      2.1515574548594127     -0.2381714629837307
    0.0000000000000000      4.4976788659932971     -0.2510964712721348
ITEM: ATOMS id type x y z
1      1          0.0000000000000000     0.0000000000000000     0.0000000000000000
2      1         -0.1949243042819983     1.3088234726554562     2.2488394329966486
ITEM: TIMESTEP energy, energy_weight, force_weight, nsims
4        -4027.4380756608820775    1    1   990
ITEM: NUMBER OF ATOMS
2         
ITEM: BOX BOUNDS xy xz yz pp pp pp
   -1.5880369972092103      2.4912068513076382     -1.3562923342819850
   -0.2439576021383692      2.1546093928689842     -0.2317446629272253
    0.0000000000000000      4.5044701610021018     -0.2439576021383692
ITEM: ATOMS id type x y z
1      1          0.0000000000000000     0.0000000000000000     0.0000000000000000
2      1         -0.1896650654656961     1.3144275326637844     2.2522350805010509
ITEM: TIMESTEP energy, energy_weight, force_weight, nsims
5        -4027.4548574731047665    1    1   990
ITEM: NUMBER OF ATOMS
2         
ITEM: BOX BOUNDS xy xz yz pp pp pp
   -1.5802750471432712      2.4945932560076418     -1.3549284810356814
   -0.2368659149126933      2.1576998559887608     -0.2253465661075897
    0.0000000000000000      4.5113301741684051     -0.2368659149126933
ITEM: ATOMS id type x y z
1      1          0.0000000000000000     0.0000000000000000     0.0000000000000000
2      1         -0.1844279800590930     1.3200336851261558     2.2556650870842025
ITEM: TIMESTEP energy, energy_weight, force_weight, nsims
6        -4027.4709599528223407    1    1   990
ITEM: NUMBER OF ATOMS
2         
ITEM: BOX BOUNDS xy xz yz pp pp pp
   -1.5725006865358604      2.4979276471994707     -1.3535441298107787
   -0.2298129452337937      2.1607400137781534     -0.2189565567250817
    0.0000000000000000      4.5180681503790590     -0.2298129452337937
ITEM: ATOMS id type x y z
1      1          0.0000000000000000     0.0000000000000000     0.0000000000000000
2      1         -0.1791986108856289     1.3255869419265389     2.2590340751895295
ITEM: TIMESTEP energy, energy_weight, force_weight, nsims
7        -4027.4864017398422220    1    1   990
ITEM: NUMBER OF ATOMS
2         
ITEM: BOX BOUNDS xy xz yz pp pp pp
   -1.5647878192562139      2.5013159368259852     -1.3521965957184838
   -0.2228036459278338      2.1638225239413664     -0.2125912235377301
    0.0000000000000000      4.5248783081825943     -0.2228036459278338
ITEM: ATOMS id type x y z
1      1          0.0000000000000000     0.0000000000000000     0.0000000000000000
2      1         -0.1739881584229436     1.3311465984577449     2.2624391540912971
ITEM: TIMESTEP energy, energy_weight, force_weight, nsims
8        -4027.5011980725466856    1    1   990
ITEM: NUMBER OF ATOMS
2         
ITEM: BOX BOUNDS xy xz yz pp pp pp
   -1.5570729597388571      2.5046497331070410     -1.3508311332359035
   -0.2158288649491088      2.1668507557405596     -0.2062418265029534
    0.0000000000000000      4.5315694451257063     -0.2158288649491088
ITEM: ATOMS id type x y z
1      1          0.0000000000000000     0.0000000000000000     0.0000000000000000
2      1         -0.1687918862224275     1.3366528102475104     2.2657847225628531
ITEM: TIMESTEP energy, energy_weight, force_weight, nsims
9        -4027.5153639172012845    1    1   990
ITEM: NUMBER OF ATOMS
2         
ITEM: BOX BOUNDS xy xz yz pp pp pp
   -1.5493848056431474      2.5079818905645812     -1.3494740249167863
   -0.2089009230344494      2.1698756707216282     -0.1999107807263612
    0.0000000000000000      4.5382346846530384     -0.2089009230344494
ITEM: ATOMS id type x y z
1      1          0.0000000000000000     0.0000000000000000     0.0000000000000000
2      1         -0.1636109053680415     1.3421333912930495     2.2691173423265192
ITEM: TIMESTEP energy, energy_weight, force_weight, nsims
10       -4027.5289131516205998    1    1   990
ITEM: NUMBER OF ATOMS
2         
ITEM: BOX BOUNDS xy xz yz pp pp pp
   -1.5417169905931474      2.5113172584369137     -1.3481232145778270
   -0.2020063147794827      2.1728960266183450     -0.1935937760153203
    0.0000000000000000      4.5448776275819851     -0.2020063147794827
ITEM: ATOMS id type x y z
1      1          0.0000000000000000     0.0000000000000000     0.0000000000000000
2      1         -0.1584400735619227     1.3475942661190228     2.2724388137909926
ITEM: TIMESTEP energy, energy_weight, force_weight, nsims
11       -4027.5418606060134152    1    1   990
ITEM: NUMBER OF ATOMS
2         
ITEM: BOX BOUNDS xy xz yz pp pp pp
   -1.5340750583932510      2.5146507777292331     -1.3467813972652283
   -0.1951529435669262      2.1759142875997552     -0.1872936611280228
    0.0000000000000000      4.5514956291664115     -0.1951529435669262
ITEM: ATOMS id type x y z
1      1          0.0000000000000000     0.0000000000000000     0.0000000000000000
2      1         -0.1532842982121583     1.3530331258135166     2.2757478145832057
ITEM: TIMESTEP energy, energy_weight, force_weight, nsims
12       -4027.6288471399716400    1    1   990
ITEM: NUMBER OF ATOMS
2         
ITEM: BOX BOUNDS xy xz yz pp pp pp
   -1.2286701955906500      2.4573403911813001     -1.2286701955906500
    0.0000000000000000      2.2654319359916055      0.0000000000000003
    0.0000000000000000      4.7431043615695394      0.0000000000000005
ITEM: ATOMS id type x y z
1      1          0.0000000000000000     0.0000000000000000     0.0000000000000000
2      1         -0.0000001228670195     1.5102880328421346     2.3715521807847697
ITEM: TIMESTEP energy, energy_weight, force_weight, nsims
13       -4027.5542212466498313    1    1   990
ITEM: NUMBER OF ATOMS
2         
ITEM: BOX BOUNDS xy xz yz pp pp pp
   -1.5264608415573948      2.5179850139776816     -1.3454481896903745
   -0.1883361509457350      2.1789241439374480     -0.1810126518670203
    0.0000000000000000      4.5580914650649440     -0.1883361509457350
ITEM: ATOMS id type x y z
1      1          0.0000000000000000     0.0000000000000000     0.0000000000000000
2      1         -0.1481435765156393     1.3584480931162359     2.2790457325324720
ITEM: TIMESTEP energy, energy_weight, force_weight, nsims
14       -4027.5660088152831122    1    1   990
ITEM: NUMBER OF ATOMS
2         
ITEM: BOX BOUNDS xy xz yz pp pp pp
   -1.5188724260137620      2.5213173941354237     -1.3441237894079487
   -0.1815584479537910      2.1819306574791892     -0.1747486366058133
    0.0000000000000000      4.5646652742040636     -0.1815584479537910
ITEM: ATOMS id type x y z
1      1          0.0000000000000000     0.0000000000000000     0.0000000000000000
2      1         -0.1430178420444373     1.3638412870735859     2.2823326371020318
ITEM: TIMESTEP energy, energy_weight, force_weight, nsims
15       -4027.5772371897260200    1    1   990
ITEM: NUMBER OF ATOMS
2         
ITEM: BOX BOUNDS xy xz yz pp pp pp
   -1.5113106679721069      2.5246528091414735     -1.3428085022295673
   -0.1748221227256593      2.1849301140181239     -0.1685021657425397
    0.0000000000000000      4.5712174020460639     -0.1748221227256593
ITEM: ATOMS id type x y z
1      1          0.0000000000000000     0.0000000000000000     0.0000000000000000
2      1         -0.1379059435592006     1.3692090874802567     2.2856087010230319
ITEM: TIMESTEP energy, energy_weight, force_weight, nsims
16       -4027.5879186151064459    1    1   990
ITEM: NUMBER OF ATOMS
2         
ITEM: BOX BOUNDS xy xz yz pp pp pp
   -1.5037372153351081      2.5279332551280027     -1.3414694721982607
   -0.1681207698496076      2.1878818027226661     -0.1622677431368472
    0.0000000000000000      4.5776498367644578     -0.1681207698496076
ITEM: ATOMS id type x y z
1      1          0.0000000000000000     0.0000000000000000     0.0000000000000000
2      1         -0.1328025636380207     1.3745275564863668     2.2888249183822289
ITEM: TIMESTEP energy, energy_weight, force_weight, nsims
17       -4027.5980662889519408    1    1   990
ITEM: NUMBER OF ATOMS
2         
ITEM: BOX BOUNDS xy xz yz pp pp pp
   -1.4962272227908178      2.5312671328330221     -1.3401702176533743
   -0.1614542985645767      2.1908733299493108     -0.1560570051374435
    0.0000000000000000      4.5841570771132947     -0.1614542985645767
ITEM: ATOMS id type x y z
1      1          0.0000000000000000     0.0000000000000000     0.0000000000000000
2      1         -0.1277197324412089     1.3798551437130298     2.2920785385566473
ITEM: TIMESTEP energy, energy_weight, force_weight, nsims
18       -4027.6076936809031395    1    1   990
ITEM: NUMBER OF ATOMS
2         
ITEM: BOX BOUNDS xy xz yz pp pp pp
   -1.4887376095352070      2.5346013887790475     -1.3388778837110324
   -0.1548292663245558      2.1938604027769486     -0.1498597258241745
    0.0000000000000000      4.5906458583217447     -0.1548292663245558
ITEM: ATOMS id type x y z
1      1          0.0000000000000000     0.0000000000000000     0.0000000000000000
2      1         -0.1226481182424021     1.3851590418177013     2.2953229291608723
ITEM: TIMESTEP energy, energy_weight, force_weight, nsims
19       -4027.6168120836900925    1    1   990
ITEM: NUMBER OF ATOMS
2         
ITEM: BOX BOUNDS xy xz yz pp pp pp
   -1.4812404096233713      2.5378805260727719     -1.3375647915834294
   -0.1482345331360685      2.1967971084047453     -0.1436756180399419
    0.0000000000000000      4.5970157599060011     -0.1482345331360685
ITEM: ATOMS id type x y z
1      1          0.0000000000000000     0.0000000000000000     0.0000000000000000
2      1         -0.1175876238995105     1.3904142122616994     2.2985078799530005
ITEM: TIMESTEP energy, energy_weight, force_weight, nsims
20       -4027.6254348308966655    1    1   990
ITEM: NUMBER OF ATOMS
2         
ITEM: BOX BOUNDS xy xz yz pp pp pp
   -1.4737737526721797      2.5411625681817065     -1.3362611394633348
   -0.1416816234917996      2.1997305632756992     -0.1375126132088449
    0.0000000000000000      4.6033649711257176     -0.1416816234917996
ITEM: ATOMS id type x y z
1      1          0.0000000000000000     0.0000000000000000     0.0000000000000000
2      1         -0.1125430061002004     1.3956463037622515     2.3016824855628588
ITEM: TIMESTEP energy, energy_weight, force_weight, nsims
21       -4027.6335737594795319    1    1   990
ITEM: NUMBER OF ATOMS
2         
ITEM: BOX BOUNDS xy xz yz pp pp pp
   -1.4663527363528104      2.5444951568287713     -1.3349904805962161
   -0.1351597566041496      2.2027040543638843     -0.1313622557565944
    0.0000000000000000      4.6097902692129820     -0.1351597566041496
ITEM: ATOMS id type x y z
1      1          0.0000000000000000     0.0000000000000000     0.0000000000000000
2      1         -0.1075098586490386     1.4008895646973165     2.3048951346064910
ITEM: TIMESTEP energy, energy_weight, force_weight, nsims
22       -4027.6412412506247165    1    1   990
ITEM: NUMBER OF ATOMS
2         
ITEM: BOX BOUNDS xy xz yz pp pp pp
   -1.4589322829959070      2.5477776487647081     -1.3337016557533437
   -0.1286714298765441      2.2056284656835596     -0.1252306272425634
    0.0000000000000000      4.6160996108556533     -0.1286714298765441
ITEM: ATOMS id type x y z
1      1          0.0000000000000000     0.0000000000000000     0.0000000000000000
2      1         -0.1024906639179181     1.4060833357050500     2.3080498054278267
ITEM: TIMESTEP energy, energy_weight, force_weight, nsims
23       -4027.6324910180273946    1    1   990
ITEM: NUMBER OF ATOMS
2         
ITEM: BOX BOUNDS xy xz yz pp pp pp
   -1.2303900216499000      2.4607800432998004     -1.2303900216499000
    0.0000000000000000      2.2654630097030086      0.0000000000000003
    0.0000000000000000      4.7431658373605812      0.0000000000000005
ITEM: ATOMS id type x y z
1      1          0.0000000000000000     0.0000000000000000     0.0000000000000000
2      1         -0.0000001230390019     1.5103087486507725     2.3715829186802906
ITEM: TIMESTEP energy, energy_weight, force_weight, nsims
24       -4027.6484476446617009    1    1   990
ITEM: NUMBER OF ATOMS
2         
ITEM: BOX BOUNDS xy xz yz pp pp pp
   -1.4515343041749815      2.5510577522761446     -1.3324204004877824
   -0.1222195283598586      2.2085483852879007     -0.1191139036871991
    0.0000000000000000      4.6223892017892778     -0.1222195283598586
ITEM: ATOMS id type x y z
1      1          0.0000000000000000     0.0000000000000000     0.0000000000000000
2      1         -0.0974847641926780     1.4112558996302840     2.3111946008946389
ITEM: TIMESTEP energy, energy_weight, force_weight, nsims
25       -4027.6552055948918678    1    1   990
ITEM: NUMBER OF ATOMS
2         
ITEM: BOX BOUNDS xy xz yz pp pp pp
   -1.4441590446192276      2.5543379696301116     -1.3311467731505666
   -0.1158040469790614      2.2114638355212386     -0.1130122714686609
    0.0000000000000000      4.6286618092788254     -0.1158040469790614
ITEM: ATOMS id type x y z
1      1          0.0000000000000000     0.0000000000000000     0.0000000000000000
2      1         -0.0924914574741623     1.4164072739067561     2.3143309046394127
ITEM: TIMESTEP energy, energy_weight, force_weight, nsims
26       -4027.6615240810733667    1    1   990
ITEM: NUMBER OF ATOMS
2         
ITEM: BOX BOUNDS xy xz yz pp pp pp
   -1.4368025376249614      2.5576181998329184     -1.3298787048007339
   -0.1094192367761263      2.2143761037374143     -0.1069238328242274
    0.0000000000000000      4.6349127784597934     -0.1094192367761263
ITEM: ATOMS id type x y z
1      1          0.0000000000000000     0.0000000000000000     0.0000000000000000
2      1         -0.0875084492515269     1.4215411912494165     2.3174563892298967
ITEM: TIMESTEP energy, energy_weight, force_weight, nsims
27       -4027.6674165728491062    1    1   990
ITEM: NUMBER OF ATOMS
2         
ITEM: BOX BOUNDS xy xz yz pp pp pp
   -1.4294760782692948      2.5609010838814363     -1.3286206264353633
   -0.1030683812056930      2.2172825855794329     -0.1008554518339314
    0.0000000000000000      4.6411471149708978     -0.1030683812056930
ITEM: ATOMS id type x y z
1      1          0.0000000000000000     0.0000000000000000     0.0000000000000000
2      1         -0.0825412452307861     1.4266542736928614     2.3205735574854489
ITEM: TIMESTEP energy, energy_weight, force_weight, nsims
28       -4027.6728932744908889    1    1   990
ITEM: NUMBER OF ATOMS
2         
ITEM: BOX BOUNDS xy xz yz pp pp pp
   -1.4221732827618716      2.5641813995876244     -1.3273704613651740
   -0.0967539040531715      2.2201846021268397     -0.0948028213966977
    0.0000000000000000      4.6473599542875998     -0.0967539040531715
ITEM: ATOMS id type x y z
1      1          0.0000000000000000     0.0000000000000000     0.0000000000000000
2      1         -0.0775880481309854     1.4317461900641273     2.3236799771437999
ITEM: TIMESTEP energy, energy_weight, force_weight, nsims
29       -4027.6779626215329699    1    1   990
ITEM: NUMBER OF ATOMS
2         
ITEM: BOX BOUNDS xy xz yz pp pp pp
   -1.4148678379973172      2.5674087449599430     -1.3261009398846950
   -0.0904765815535250      2.2230363535037432     -0.0887668981126223
    0.0000000000000000      4.6534632308272661     -0.0904765815535250
ITEM: ATOMS id type x y z
1      1          0.0000000000000000     0.0000000000000000     0.0000000000000000
2      1         -0.0726479571097828     1.4367860189936112     2.3267316154136330
ITEM: TIMESTEP energy, energy_weight, force_weight, nsims
30       -4027.6826368591041501    1    1   990
ITEM: NUMBER OF ATOMS
2         
ITEM: BOX BOUNDS xy xz yz pp pp pp
   -1.4076066239878651      2.5706888680884137     -1.3248647160857949
   -0.0842267052060738      2.2259333429137325     -0.0827419079020702
    0.0000000000000000      4.6596416141647055     -0.0842267052060738
ITEM: ATOMS id type x y z
1      1          0.0000000000000000     0.0000000000000000     0.0000000000000000
2      1         -0.0677179384972132     1.4418422835372295     2.3298208070823527
ITEM: TIMESTEP energy, energy_weight, force_weight, nsims
31       -4027.6869246948494947    1    1   990
ITEM: NUMBER OF ATOMS
2         
ITEM: BOX BOUNDS xy xz yz pp pp pp
   -1.4003741094842646      2.5739714786008752     -1.3236362465954337
   -0.0780106779046577      2.2288220306523576     -0.0767378628888308
    0.0000000000000000      4.6658016079257285     -0.0780106779046577
ITEM: ATOMS id type x y z
1      1          0.0000000000000000     0.0000000000000000     0.0000000000000000
2      1         -0.0628027328946703     1.4468760891099772     2.3329008039628643
ITEM: TIMESTEP energy, energy_weight, force_weight, nsims
32       -4027.6908371493855157    1    1   990
ITEM: NUMBER OF ATOMS
2         
ITEM: BOX BOUNDS xy xz yz pp pp pp
   -1.3931336531380203      2.5771983847159481     -1.3223892722019646
   -0.0718213242996311      2.2316643075882809     -0.0707443809360558
    0.0000000000000000      4.6718502967318729     -0.0718213242996311
ITEM: ATOMS id type x y z
1      1          0.0000000000000000     0.0000000000000000     0.0000000000000000
2      1         -0.0578990403502767     1.4518656172978486     2.3359251483659365
ITEM: TIMESTEP energy, energy_weight, force_weight, nsims
33       -4027.6943814337314507    1    1   990
ITEM: NUMBER OF ATOMS
2         
ITEM: BOX BOUNDS xy xz yz pp pp pp
   -1.3859160080510833      2.5804276594199895     -1.3211481076051119
   -0.0656685681576643      2.2344996215910600     -0.0647679004459714
    0.0000000000000000      4.6778809997486945     -0.0656685681576643
ITEM: ATOMS id type x y z
1      1          0.0000000000000000     0.0000000000000000     0.0000000000000000
2      1         -0.0530069322055893     1.4568322047985285     2.3389404998743473
ITEM: TIMESTEP energy, energy_weight, force_weight, nsims
34       -4027.6360264586696758    1    1   990
ITEM: NUMBER OF ATOMS
2         
ITEM: BOX BOUNDS xy xz yz pp pp pp
   -1.2320833888466995      2.4641667776934004     -1.2320833888466995
    0.0000000000000000      2.2654465120730936      0.0000000000000003
    0.0000000000000000      4.7431341728756982      0.0000000000000005
ITEM: ATOMS id type x y z
1      1          0.0000000000000000     0.0000000000000000     0.0000000000000000
2      1         -0.0000001232083384     1.5102977502302792     2.3715670864378491
ITEM: TIMESTEP energy, energy_weight, force_weight, nsims
35       -4027.6975695209021069    1    1   990
ITEM: NUMBER OF ATOMS
2         
ITEM: BOX BOUNDS xy xz yz pp pp pp
   -1.3787429947679615      2.5837069891823043     -1.3199402936158011
   -0.0595482111226586      2.2373802319741927     -0.0588027011521603
    0.0000000000000000      4.6839925597492424     -0.0595482111226586
ITEM: ATOMS id type x y z
1      1          0.0000000000000000     0.0000000000000000     0.0000000000000000
2      1         -0.0481260133807555     1.4618127903341402     2.3419962798746212
ITEM: TIMESTEP energy, energy_weight, force_weight, nsims
36       -4027.7004095743163816    1    1   990
ITEM: NUMBER OF ATOMS
2         
ITEM: BOX BOUNDS xy xz yz pp pp pp
   -1.3715744505620016      2.5869357295333359     -1.3187162110099631
   -0.0534551218111452      2.2402092844478712     -0.0528582395520385
    0.0000000000000000      4.6899906173836809     -0.0534551218111452
ITEM: ATOMS id type x y z
1      1          0.0000000000000000     0.0000000000000000     0.0000000000000000
2      1         -0.0432614807932806     1.4667453700666508     2.3449953086918405
ITEM: TIMESTEP energy, energy_weight, force_weight, nsims
37       -4027.7029112540199094    1    1   990
ITEM: NUMBER OF ATOMS
2         
ITEM: BOX BOUNDS xy xz yz pp pp pp
   -1.3644227483307436      2.5901641148142680     -1.3174959778000219
   -0.0473957713316737      2.2430352720829720     -0.0469267705307218
    0.0000000000000000      4.6959713271503887     -0.0473957713316737
ITEM: ATOMS id type x y z
1      1          0.0000000000000000     0.0000000000000000     0.0000000000000000
2      1         -0.0384061291159558     1.4716590371573202     2.3479856635751943
ITEM: TIMESTEP energy, energy_weight, force_weight, nsims
38       -4027.7050823152599150    1    1   990
ITEM: NUMBER OF ATOMS
2         
ITEM: BOX BOUNDS xy xz yz pp pp pp
   -1.3572907400793646      2.5933921136669658     -1.3162822501139533
   -0.0413702315916847      2.2458581846003467     -0.0410084899654114
    0.0000000000000000      4.7019374479457117     -0.0413702315916847
ITEM: ATOMS id type x y z
1      1          0.0000000000000000     0.0000000000000000     0.0000000000000000
2      1         -0.0335618374921647     1.4765537487996616     2.3509687239728558
ITEM: TIMESTEP energy, energy_weight, force_weight, nsims
39       -4027.7069296969434617    1    1   990
ITEM: NUMBER OF ATOMS
2         
ITEM: BOX BOUNDS xy xz yz pp pp pp
   -1.3501830403217947      2.5966197141258132     -1.3150773598699614
   -0.0353678429896592      2.2486766984602360     -0.0351056804518333
    0.0000000000000000      4.7078891995690242     -0.0353678429896592
ITEM: ATOMS id type x y z
1      1          0.0000000000000000     0.0000000000000000     0.0000000000000000
2      1         -0.0287313058205223     1.4814339524345508     2.3539445997845121
ITEM: TIMESTEP energy, energy_weight, force_weight, nsims
40       -4027.7084644196852423    1    1   990
ITEM: NUMBER OF ATOMS
2         
ITEM: BOX BOUNDS xy xz yz pp pp pp
   -1.3430972831040773      2.5998468750439914     -1.3138787662508040
   -0.0293994026443403      2.2514908552357187     -0.0292185168532733
    0.0000000000000000      4.7138214653883264     -0.0293994026443403
ITEM: ATOMS id type x y z
1      1          0.0000000000000000     0.0000000000000000     0.0000000000000000
2      1         -0.0239129413700302     1.4862942772180041     2.3569107326941632
ITEM: TIMESTEP energy, energy_weight, force_weight, nsims
41       -4027.7096947829613782    1    1   990
ITEM: NUMBER OF ATOMS
2         
ITEM: BOX BOUNDS xy xz yz pp pp pp
   -1.3360319951841524      2.6030761455019595     -1.3126868994895053
   -0.0234593227629407      2.2543019573875398     -0.0233450956946471
    0.0000000000000000      4.7197422773577449     -0.0234593227629407
ITEM: ATOMS id type x y z
1      1          0.0000000000000000     0.0000000000000000     0.0000000000000000
2      1         -0.0191052295317753     1.4911383853536213     2.3598711386788724
ITEM: TIMESTEP energy, energy_weight, force_weight, nsims
42       -4027.7106274535635748    1    1   990
ITEM: NUMBER OF ATOMS
2         
ITEM: BOX BOUNDS xy xz yz pp pp pp
   -1.3289917962978397      2.6063049072467108     -1.3115040829167015
   -0.0175532121470400      2.2571087074585163     -0.0174877133811383
    0.0000000000000000      4.7256465450099467     -0.0175532121470400
ITEM: ATOMS id type x y z
1      1          0.0000000000000000     0.0000000000000000     0.0000000000000000
2      1         -0.0143117401464328     1.4959626074691144     2.3628232725049734
ITEM: TIMESTEP energy, energy_weight, force_weight, nsims
43       -4027.7112712751963954    1    1   990
ITEM: NUMBER OF ATOMS
2         
ITEM: BOX BOUNDS xy xz yz pp pp pp
   -1.3219726035933657      2.6095305033177465     -1.3103281528340949
   -0.0116754472712850      2.2599150268529327     -0.0116444507592707
    0.0000000000000000      4.7315344727702922     -0.0116754472712850
ITEM: ATOMS id type x y z
1      1          0.0000000000000000     0.0000000000000000     0.0000000000000000
2      1         -0.0095309568250716     1.5007723695968136     2.3657672363851461
ITEM: TIMESTEP energy, energy_weight, force_weight, nsims
44       -4027.7116316901378923    1    1   990
ITEM: NUMBER OF ATOMS
2         
ITEM: BOX BOUNDS xy xz yz pp pp pp
   -1.3149445485353892      2.6127078164675388     -1.3091296801116894
   -0.0058234345893185      2.2626685833743667     -0.0058148684236998
    0.0000000000000000      4.7373128605043853     -0.0058234345893185
ITEM: ATOMS id type x y z
1      1          0.0000000000000000     0.0000000000000000     0.0000000000000000
2      1         -0.0047580795250464     1.5055340803772044     2.3686564302521926
ITEM: TIMESTEP energy, energy_weight, force_weight, nsims
45       -4027.6394572714943934    1    1   990
ITEM: NUMBER OF ATOMS
2         
ITEM: BOX BOUNDS xy xz yz pp pp pp
   -1.2337767560435000      2.4675535120870005     -1.2337767560435000
    0.0000000000000000      2.2654362039119542      0.0000000000000003
    0.0000000000000000      4.7431140880590457      0.0000000000000005
ITEM: ATOMS id type x y z
1      1          0.0000000000000000     0.0000000000000000     0.0000000000000000
2      1         -0.0000001233776754     1.5102908781225095     2.3715570440295228
ITEM: TIMESTEP energy, energy_weight, force_weight, nsims
46       -4027.7117510121101986    1    1   990
ITEM: NUMBER OF ATOMS
2         
ITEM: BOX BOUNDS xy xz yz pp pp pp
   -1.3079674063532996      2.6159374286414128     -1.3079674063532996
    0.0000000000000000      2.2654675621090474      0.0000026159348134
    0.0000000000000000      4.7431737633774151      0.0000026159348136
ITEM: ATOMS id type x y z
1      1          0.0000000000000000     0.0000000000000000     0.0000000000000000
2      1          0.0000011771706662     1.5103113475990608     2.3715868816887076
ITEM: TIMESTEP energy, energy_weight, force_weight, nsims
47       -4027.7115428449296815    1    1   990
ITEM: NUMBER OF ATOMS
2         
ITEM: BOX BOUNDS xy xz yz pp pp pp
   -1.3067831932096572      2.6249135730238944     -1.3067831932096572
    0.0000000000000000      2.2740072041020509      0.0058027190547594
    0.0000000000000000      4.7489228145049029      0.0057921126150620
ITEM: ATOMS id type x y z
1      1          0.0000000000000000     0.0000000000000000     0.0000000000000000
2      1          0.0047493845141851     1.5150395262393599     2.3744614072524515
ITEM: TIMESTEP energy, energy_weight, force_weight, nsims
48       -4027.7111061020214038    1    1   990
ITEM: NUMBER OF ATOMS
2         
ITEM: BOX BOUNDS xy xz yz pp pp pp
   -1.3056348560246145      2.6339276052737328     -1.3056348560246145
    0.0000000000000000      2.2825654122865719      0.0115884798899390
    0.0000000000000000      4.7547546743183062      0.0115612673488626
ITEM: ATOMS id type x y z
1      1          0.0000000000000000     0.0000000000000000     0.0000000000000000
2      1          0.0094839134573585     1.5197834726663755     2.3773773371591531
ITEM: TIMESTEP energy, energy_weight, force_weight, nsims
49       -4027.7104205108967108    1    1   990
ITEM: NUMBER OF ATOMS
2         
ITEM: BOX BOUNDS xy xz yz pp pp pp
   -1.3044648190809609      2.6428752747349948     -1.3044648190809609
    0.0000000000000000      2.2910458710072299      0.0173615144753416
    0.0000000000000000      4.7604776008282528      0.0172988679278102
ITEM: ATOMS id type x y z
1      1          0.0000000000000000     0.0000000000000000     0.0000000000000000
2      1          0.0142086669376286     1.5244808451417515     2.3802388004141264
ITEM: TIMESTEP energy, energy_weight, force_weight, nsims
50       -4027.7094920580602775    1    1   990
ITEM: NUMBER OF ATOMS
2         
ITEM: BOX BOUNDS xy xz yz pp pp pp
   -1.3033018289324647      2.6518046291611395     -1.3033018289324647
    0.0000000000000000      2.2994907767041051      0.0231169967297262
    0.0000000000000000      4.7661850802343730      0.0230078272019345
ITEM: ATOMS id type x y z
1      1          0.0000000000000000     0.0000000000000000     0.0000000000000000
2      1          0.0189196921540424     1.5291592891518457     2.3830925401171865
ITEM: TIMESTEP energy, energy_weight, force_weight, nsims
51       -4027.7083301314455639    1    1   990
ITEM: NUMBER OF ATOMS
2         
ITEM: BOX BOUNDS xy xz yz pp pp pp
   -1.3021701981502147      2.6607811663166752     -1.3021701981502147
    0.0000000000000000      2.3079542922502538      0.0288648837010189
    0.0000000000000000      4.7719757859815966      0.0286886088604294
ITEM: ATOMS id type x y z
1      1          0.0000000000000000     0.0000000000000000     0.0000000000000000
2      1          0.0236242728193691     1.5338548359989537     2.3859878929907983
ITEM: TIMESTEP energy, energy_weight, force_weight, nsims
52       -4027.7069389488183333    1    1   990
ITEM: NUMBER OF ATOMS
2         
ITEM: BOX BOUNDS xy xz yz pp pp pp
   -1.3010221372383970      2.6696856053146836     -1.3010221372383970
    0.0000000000000000      2.3163415506310399      0.0345944152416115
    0.0000000000000000      4.7776579800090175      0.0343458439544661
ITEM: ATOMS id type x y z