ITEM: TIMESTEP energy, energy_weight, force_weight, nsims
1        -134885.3122159187914804    1    1   20
ITEM: NUMBER OF ATOMS
67        
ITEM: BOX BOUNDS xy xz yz pp pp pp
    0.0000000000000000     11.9999937223983011      0.0000000000000007
    0.0000000000000000     11.9999937223982993      0.0000000000000007
    0.0000000000000000     11.9999937223982993      0.0000000000000007
ITEM: ATOMS id type x y z
1      1          2.8897052882976402     9.6244053651487427     3.4522949939879779
2      1          8.9275009297229726     5.5926174743130561    11.5673255487416231
3      1          4.1196146448905493    10.6848868103751080     9.3261023212011320
4      1          1.8304502424297033     9.6762981380018811     0.9342295112730137
5      1          5.6660478358991551     1.8161234499245318     4.6753643541591190
6      1          2.5131622852799933     1.5810663728908219     6.5460721755287237
7      1          8.4536223776248356     2.3878199508507985     7.1036206838562821
8      1         11.6487851061273791     5.5056883197886304     9.8109584675565191
9      1         11.4556500071628680     1.6832499194351596     0.2771794549980726
10     1          2.0235865413935876     0.6153380780958851    11.1059401901078747
11     1          2.2947491995392491     3.3916122257331827     9.9411115994690231
12     1          9.6206997670872667     8.6614358689105853     6.1009792083718750
13     1         11.5103135785665085     0.2649778613811387     9.5269018161561387
14     1          7.5196652662093220     8.8628725635322514    10.8662487154985747
15     1          1.1501081983395871     4.8955582389682659     2.1647220675608296
16     1          7.4678924932934052     2.9340896650786750     9.8579396429790798
17     1          5.4256531616577233     6.0244420484110481    11.7218662678961572
18     1          1.0247346639267145     4.2928969542407236     5.4936775260718820
19     1          8.6870618555047656     8.2772956698672875     8.5763823134049701
20     1          4.6865795482920722     5.3256032139972262     4.7148047335265248
21     1          5.3546635987947591     8.8015669956032632     6.9918515423264926
22     1          8.7648926147888702     5.5868130773495315     3.9839931158387465
23     1          5.6105934649092095     0.6685496502591157     7.3249017680966784
24     1         11.2933680920580137     8.7375542290905006     1.9090994012856735
25     1         10.4853893147389812    11.0859002005914693     4.6954463436535523
26     1          7.7759887321178658    11.9323497577851398     4.8750178497136369
27     1          0.7163312252629612     1.1253990112657966     4.6414787718858106
28     1          7.7189935619339618     8.1167177538710131     1.6310127467621875
29     1          1.5497583892690852     7.7449327483642980     8.2693768740098754
30     1          5.6467446459973063    11.5175435747842538     1.6497231369741510
31     1          0.4462461665535711    10.8896271032685519     6.9117107842508281
32     1          8.5342947354224030     2.6874837940865279     1.0845666326265917
33     1          6.4239842393970434     5.3563051979359830     8.4761187658562154
34     1         11.5970351331995367     8.9195149339007163    10.6597084235467712
35     1          3.1376827585722564     4.3676317151444479     0.3561190137021254
36     1          2.9932808341137775     7.1959438355589267    11.6789458903492562
37     1          9.3049511322660319     5.4547015464615329     8.3878492120329984
38     1          5.4348007568723071     8.6076998970216856     3.4227618094377834
39     1          5.8224677540706180     0.0645383662378032    11.0622026129884787
40     1          3.1041103761351034     7.6642219905868192     5.3753059879960281
41     1         11.5054043811346745     6.8867099973295822     4.1862674100222366
42     1         10.5433732844056092     3.5339993512456718     3.7239124518957190
43     1          9.3180287254247034    11.0530154177946098     8.3717008204807666
44     1          6.4423082298111458     3.8596119809067155     2.2037052471674130
45     1          3.5339033512958928     6.0765268211637462     8.6397458802573492
46     1          3.5441453459379599    10.6550872259642766     6.1248975958593599
47     1          4.2725173649019741     3.6847108724033886     7.0445615147521270
48     1          9.1426008171969606    11.8978377758395233     2.3886299504270596
49     1         10.6052104520565003     5.2739588410141414     6.0861628161228314
50     1          3.2149279181627062     1.6953411131098484     2.8318269185757683
51     1         11.6795806900171701     2.5784782511110067     8.0459237909057251
52     1          9.5714397928568200    10.2867918186320324     0.3414310213859099
53     1          3.3425886513790686     7.0854214933768933     2.4562751150395914
54     1          7.3635441478815462     6.6726121093314141     6.1258323953703346
55     1          4.2518977756887777     1.6897983160094723     0.3859161981142126
56     1          8.5351083349967816     0.8793499399823701    11.1602401617017275
57     1          4.9889661901034161     8.2876432644541111    10.1450994927560707
58     1          0.1800719057983098    11.8343890090317139     2.1917520534205321
59     1          4.9654330024144206     8.9705329072114921     0.8343763635095650
60     1         10.6831384112897538     6.1918515608334816     1.6521615356985424
61     1          0.6788336448792115     9.2565899575653940     4.8113782830056424
62     1          4.9022254354804318     2.3280023821433873     9.5508334036367177
63     1          7.1434306630303386     3.8952075622854667     5.3335820098232496
64     1         10.2172038550358462     3.0270272164599050    10.2619086316492680
65     1          1.4553268386694167    10.4209397484547246     9.5000098302242435
66     1          8.3198500476056552     9.3867634894672261     3.9215679484954586
67     1          6.8086896381446680    10.3457621877826433     8.6404250799020375
ITEM: TIMESTEP energy, energy_weight, force_weight, nsims
2        -138914.3403159058070742    1    1   20
ITEM: NUMBER OF ATOMS
69        
ITEM: BOX BOUNDS xy xz yz pp pp pp
    0.0000000000000000     11.9999937223983011      0.0000000000000007
    0.0000000000000000     11.9999937223982993      0.0000000000000007
    0.0000000000000000     11.9999937223982993      0.0000000000000007
ITEM: ATOMS id type x y z
1      1          3.6642688830972836     1.3836124761856192     9.3724246969683325
2      1          7.0868902926085147     5.9486380880666569     6.0267616471975867
3      1          1.5945231658511196     5.6573994404234229     6.1546719802833740
4      1          6.9605111587217046     0.1366619285075333     4.2981565514892504
5      1          3.0093128257269015     6.2652087224578761    10.4590925284957166
6      1          1.6795767213567343    11.9484045493863373     3.9558735305490504
7      1          8.1629777296708603     0.4686129548527483     1.1429838020665990
8      1          0.4255569773767841     6.9014363896257107     9.2448959636829180
9      1          4.6120847872627966     8.5054767504980617     1.2465137479065902
10     1          1.9149217982397815     3.3194190634998622     4.9435570138584870
11     1          9.5890305836544840     3.0032060289215727     7.8747498804525753
12     1         11.0457818215787480     3.4970429705788022    10.0510159419743506
13     1          5.1117081258929655     1.5294471998945534     5.7544469896545749
14     1         10.1697462798625065     5.9297440979507412     3.1918471302370452
15     1          7.7507791453058505     9.9327824038263053     1.9265965921323023
16     1          3.3861306286007902     3.0909007830454867     0.6226520742696863
17     1          7.5323456595757783     7.1807986434818876     3.0385352104396843
18     1         10.5489112815084969     7.5067220729803408     6.5335873820599399
19     1          8.9302741282722184    11.3444172653524689     7.6205492134335220
20     1          0.7730455955937604     1.3654900856660530     8.2653592761116172
21     1          6.7382604749885395     7.3042869788809721     9.6985677263519072
22     1         11.4098676311131726     2.0666653188576243     0.8271847672717317
23     1          5.1780272911991743    11.2747693017876696     7.7874079261440983
24     1         10.3181838022098287     2.4844475003016662     4.7817310985150847
25     1          4.2269449887424244     8.5807083111418940     8.5198911429574071
26     1          9.7377465058561672    10.7993739504830213     4.8462874647434706
27     1          4.1989970033629573     1.3508752933115440     2.6340610220337832
28     1         11.4393528156884781     9.4837390387360454    10.0208863577361544
29     1          1.6519695357989850     9.7332309082184274     6.7676712596027642
30     1          8.9130553372799497     5.2833440361044293     8.9794501025466058
31     1          0.9681678935187008     6.2361423376634812     2.3503187704689310
32     1          7.2418654115358017    11.6001575315661061     9.6544209494465765
33     1          6.4104818464606010     3.0405320093950916     0.0108551943212815
34     1          3.2627490931458367     7.8856134747694622     4.7739359025930153
35     1         11.5075883799921517     9.0003816915965853     3.0839599866764518
36     1          6.0049960585839015     3.1508359516913775     8.5521387260876089
37     1          7.9697250307678686     3.5471537443641648     3.7685188285606177
38     1          9.6844389337431558    11.4868703908304308    11.1882589470441545
39     1          1.0514718499395901    10.6874848090160075     0.1934686987899943
40     1          5.2384652595820311     5.0692893480836601     3.3934410247764757
41     1          5.2377680599467604     9.9127676142967189     4.9526470091032042
42     1          9.2934587382780904     6.9308231742524926    11.4728651981570202
43     1          4.1351282367748654    11.1120853868931153     0.7817575910362208
44     1          8.9293345287637536     4.1981138038249881     1.3996060678188309
45     1          2.0981329023958701     9.5787525890312502     2.6950017901536105
46     1         11.4837263924751642    11.8897629800637219     2.4859918994937380
47     1          2.0079469495751856     7.9941858179716050     0.3892413963746892
48     1          3.2559798966870312     3.5306777529833124     7.3594797500077691
49     1          8.9385445239456960     1.9958305559136802    10.4616173271749098
50     1          2.2655532148126545    10.7791131610821243     9.3896962879329813
51     1         11.9103621692875894     5.5517910956707128    11.8934325781440311
52     1         11.6544899031430074     4.7962042909436704     7.7646955380257152
53     1          1.5242860025945499     1.4822500245849888    10.9387094775919049
54     1          7.5083804721127780     8.9126305375021762     6.1157788006297089
55     1          9.7261713119115409     5.0066085808740848     5.6806446282630807
56     1          4.9827417933596081     5.9345296954472344     8.0015634141121357
57     1          4.0921382592643720     5.9463112892838836     0.8233411692824476
58     1          7.0001447379880410     6.0988588094811282     0.6441236630371735
59     1          7.9839978233012907     9.1958675893313160    11.0096870404611469
60     1         11.3068512850045000     8.5753071139674422     0.4858641458280680
61     1          7.8415890978000995     1.5091996104867507     6.4456742280502777
62     1          1.8365486392394266     3.9302655439454530     9.6788421366710296
63     1          0.3039130410128320     3.5774537285132197     2.8077765311573377
64     1          0.1114283417080750    11.9097249696209300     6.0903796139168822
65     1          5.1466293076245186    10.0357495499607161    10.5935860581376122
66     1          9.2300531714476843     7.8776610789296297     8.8411009749217051
67     1          2.8301745194401944     0.4614261586124043     6.6119761410521356
68     1          5.4816247323771057     5.0747265452392796    10.6044616524482223
69     1          1.9043354037778812     0.8780839406446564     1.4587576368746489
ITEM: TIMESTEP energy, energy_weight, force_weight, nsims
3        -138914.5596511874173302    1    1   20
ITEM: NUMBER OF ATOMS
69        
ITEM: BOX BOUNDS xy xz yz pp pp pp
    0.0000000000000000     11.9999937223983011      0.0000000000000007
    0.0000000000000000     11.9999937223982993      0.0000000000000007
    0.0000000000000000     11.9999937223982993      0.0000000000000007
ITEM: ATOMS id type x y z
1      1          9.1703820026636862     6.9816179476800313     2.5782130512497412
2      1          5.8927889172832444     3.2446855025955101    11.3932080398283677
3      1         10.0553059397301094     6.0049072586303547     5.1398817111544117
4      1          8.3207356471423690     1.4618680352474951     7.9745982282185341
5      1          1.6275351485814371     8.9138809368480505     2.7370713681455947
6      1          0.9849618847331972     3.1912855305308376     0.3287350280276125
7      1          5.6147970627101644     5.8816769230963031     4.9670398015738488
8      1          8.8506361699335230     3.4056150184078495    11.3473152638364283
9      1          2.7833877439159362     4.7138087340475670    10.6261684410926680
10     1          8.0304365990075990    11.5724231460748967     0.0019547989773787
11     1          9.5119846239598260    11.4351720178755958     5.2850468352136373
12     1          0.8265859675849853     7.3292481658229320    10.9259294842775514
13     1          6.1759335691607218     4.2246505899427005     8.4671799705324009
14     1          5.8143689583073721     8.7664058139972632     9.8135720661892556
15     1          1.7611802786671593     3.7405336432006138     6.2303907406723367
16     1          4.0690082713644493     4.8508594623517052     1.5385491951329919
17     1          1.8334790408452373     9.1500192133161473     7.5756152369400027
18     1          8.6901554538864012     5.6864790252109110     7.9883562210212640
19     1          9.3588395040752062     8.8275397820160215     7.5893864297358267
20     1          3.9758667200899396     6.5221213880581885     8.4978471544893619
21     1          6.5082637953075650    10.6871524091898973     7.9594254361559340
22     1          4.3777981098260641     0.7311560175076122     7.9644306335375461
23     1          0.0905075526524455     3.3715530362268216     9.5566270006058929
24     1          5.3447708039700146     8.6638718676362316     1.1231058124654461
25     1         11.9605809430164545    11.8012594263629165     6.1364427898196787
26     1          7.0116047319929331     6.5400121786989134    11.4340128184820120
27     1         11.6800654897635550     5.6915994225322581     0.7109564280746986
28     1          6.8299560270195014     9.9721471832332611     3.0825943873908419
29     1          2.4093575395837594    11.7434038566291186     1.2715877347895415
30     1          4.5220020343881249    11.3059692854659044     3.2641446924157504
31     1         11.1892165465432036    11.5006679836124448     9.6150849700245544
32     1          7.4592992977887951     3.1038019762964368     1.6807971207183015
33     1         10.5931600583604677    10.3968449610595197     2.5920370440179443
34     1          0.7456772099110862     2.2372200296346989     3.2519898987743332
35     1          8.8786933552558622     8.9564317145883017     4.5477072209408727
36     1          6.1814979662497960     2.0179249443553595     4.3972812996337494
37     1          3.2208307150747544     1.6737891243844212     4.5705096090121744
38     1          3.2731386877106896    11.0298566299097534     6.0129388544287563
39     1          9.0011304912048633     2.4890878978741173     5.2460192556302809
40     1         10.0736383301398167     6.7212564838838995    10.5978160559247581
41     1          1.5444351920538288     1.2052925694707803     8.0302865990860681
42     1          5.4307195590073203     8.3196604477048410     7.0945870885820606
43     1         10.0214419574455018     3.9726507217723359     2.7194001773899910
44     1          1.8624854256710177     4.6128071868848837     3.5889017225243878
45     1          9.1171092305324706     8.9534053161715121    11.8502554007314682
46     1          4.8022930877584162    10.8638115167735556    11.4953543863921670
47     1          1.5531855874762019     6.3705230673643882     7.4212977176687049
48     1          5.0577453541227140     8.6000883010035682     4.5195984356455279
49     1          9.1172628304521162     0.8327707643495084     2.6973873889056232
50     1         10.5309340909129716     0.2331718780199214     0.4999545384569081
51     1          4.5034632440863902     1.3891816732721836     0.9555619001133210
52     1          3.4177038120837930     6.9822527473479452     3.0586219999316069
53     1         11.1221257816406460     3.1722979404638867     7.0829590946650569
54     1          2.8652013011165032     9.1368360202127210     0.3766762029479659
55     1          0.5246757255244215     7.9931478185146174     5.1367149128110716
56     1          2.4127979377839712    11.1516409662002562     9.6447657544975360
57     1          6.1805235667595371     6.3964430538047665     2.2948835994689398
58     1         11.9098617695493658     9.4395946618294584     0.2950798456337742
59     1          6.5877961537015022    11.3836356448360103     5.3154152193269102
60     1          3.3103518682432180     3.0894295838151207     8.4679695701193349
61     1          6.3565298746846981     0.6993092341677394     9.7367361063847415
62     1          2.5296346766627291     1.8125282518053014    10.6709368176728194
63     1          1.2234917599501700    11.3941428393393434     3.8678343766053032
64     1          4.0015851066357833     7.0462811138525474    11.2026841394978511
65     1          4.7280863265784756     3.4055466184436312     6.1921311606872136
66     1          7.9258794537049688     4.8667786540238387     4.1321930383103656
67     1          8.6987810493740589    10.5662260724505455     9.4516054555462059
68     1         11.6103455262364221     8.6847674567050444     9.0273684774788876
69     1          7.6372364047038896     7.1753026463570277     6.0749704219779499
ITEM: TIMESTEP energy, energy_weight, force_weight, nsims
4        -136899.7928991623048205    1    1   20
ITEM: NUMBER OF ATOMS
68        
ITEM: BOX BOUNDS xy xz yz pp pp pp
    0.0000000000000000     11.9999937223983011      0.0000000000000007
    0.0000000000000000     11.9999937223982993      0.0000000000000007
    0.0000000000000000     11.9999937223982993      0.0000000000000007
ITEM: ATOMS id type x y z
1      1          0.7262228200883341     1.6374519433936268     3.3638670402476252
2      1         11.1690997570669737     0.7490132081659130     6.8926391942278205
3      1         10.8837147063615252    10.7991711505891139     4.3906417031071472
4      1         10.2513894371522127     4.7390615208369811     3.6305897007160000
5      1          7.2339994156507670     1.5395283946207399     4.2967729522130584
6      1          7.2814689908178316     7.3854321364312012     5.8502153395549188
7      1          9.6082245736134606     1.7600858792396759     1.6816731202600366
8      1          8.9365945249658054     6.2994231045591773     8.0928953663333090
9      1          2.5567570624740945     8.1890993160057768     8.6970698502692461
10     1          6.6238153348586541     6.5799721577944990    11.3934996396758237
11     1          2.9608280510909233    11.5817279412072445     2.8682552995188528
12     1          5.0328189671625472     6.3966566536930252     4.1940026059756947
13     1         11.8033738252568039     7.2449146099406621     7.2589642025908443
14     1          6.1903275616307374     2.1106656958395424    10.7440263794372033
15     1          6.0624976285028902    10.4597345281598653     5.8073429619829060
16     1          0.2049178928005354     3.0662623959346593    11.0469626209610325
17     1          8.4529791779613142     9.4987810308670717     1.6589979321221928
18     1          6.2246631436686357     3.3573270436689184     5.9133077065491717
19     1          5.6231478583415830     9.0960324415584513    10.2039162619870343
20     1          2.6457790159037056     8.1397361418293173     2.1642744677949843
21     1         11.1578101629729431     0.2140498880232803    10.4633945262451977
22     1          4.5600924144617618     8.2626136775479324     6.9377615706227820
23     1          7.2569446036473657     3.8159332037565585     2.1353280829378152
24     1         11.4375672166225861    10.2377934442647369     8.7326498316561576
25     1          0.1499135215751783    11.1891493465783576     1.9886545596676852
26     1         10.8813891075781246     8.6087522964711400    11.2744645019471204
27     1          8.8226869845546840     2.9602916513715316     7.1269678716425799
28     1          8.8505389699843704     4.7785991001535395    10.7639751690013181
29     1          3.2640942924421181    11.4620112038351110     9.4027726810922783
30     1          1.5377499955510809     6.5789533583274675     3.9621111272859526
31     1          4.2301045870895297     2.0351137353633231     4.5636516125998243
32     1          1.8413270367396850     6.0950572114698724     0.1714307103188099
33     1          2.5210066811763250     5.4937171260511661     7.3824057380144117
34     1          1.6468911384556655     1.3695148835605455     7.6653787899816583
35     1          5.8714625284397979    11.9597481434521207     0.5710077012866007
36     1          2.2049520465151708     9.7390293051850918     5.7637109848082657
37     1          6.5244349868478686     8.6694458647202861     3.5134469619973197
38     1         10.3594865806029510     7.0614083059390014     1.6393767423866994
39     1          8.1797033209211385     0.2323990784241996    11.0646374117147523
40     1          1.9222513944054225     9.8861048282449211     0.3530290153186078
41     1          8.8505593699736984     0.3678154075833475     8.4769839654035994
42     1          2.8889168887100780     1.5012796146299672     0.4944129413559045
43     1          5.6135634633555025     6.5489221740377941     8.7150506408628878
44     1          6.2765835165073369     0.4099581855370381     7.9229610552316823
45     1          4.5986555942880596     5.3443940041671301     1.0890282302925793
46     1          0.4900137436572738     4.4877540523043997     2.2531224213156213
47     1          3.0105212250947466     3.5751317297279366    10.3601717802444977
48     1          9.6333957604455627     7.1759242460318493     4.6414163719184538
49     1          8.7935893997766126    10.3737857731225596     6.1135156018136652
50     1         11.1010033926904796     4.7783423002878793     6.2783763155694619
51     1         11.8597965957401481     4.9314286202032607     8.9961504938100685
52     1          4.2236821904493036     2.0465389293864185     8.5489275277674945
53     1          8.3256856445528591     9.4772386421366228     8.5676211179882458
54     1          2.0728309156321929     3.5275949545960281     5.2977608285625175
55     1          3.5719025314172401    11.7779878385370687     6.7023396937799111
56     1          6.6212605361951562     4.0092987026005416     8.4351087873099200
57     1          0.1868039022765750     8.7631334157091665     3.2631978929110534
58     1          9.9330032037107969     1.4885644212817142     4.4609928663040792
59     1          5.1915008841506820     8.5448751298874406     0.9205207184445459
60     1          7.7176867626175927     5.1087633274334889     4.5434052231913933
61     1          5.7373985985731641    11.6966278810992090     3.1826023350733097
62     1          2.9732096446136929     3.5468861445041551     2.6774181993521804
63     1          7.3546809525181818     6.6613069152455413     1.9069442024131309
64     1         10.7379651826080202     2.4758711047882680     8.9513089172682108
65     1          4.0024647061756351     7.0926406896002892    10.8816363074488063
66     1          5.1830936885487686     2.2581360186928392     1.6309251468080139
67     1         11.2417345190692792     5.4696919386195528    11.6361167127546423
68     1          8.0952161651192203     8.7337094311018451    11.1088717885742572
ITEM: TIMESTEP energy, energy_weight, force_weight, nsims
5        -138914.4771286830073223    1    1   20
ITEM: NUMBER OF ATOMS
69        
ITEM: BOX BOUNDS xy xz yz pp pp pp
    0.0000000000000000     11.9999937223983011      0.0000000000000007
    0.0000000000000000     11.9999937223982993      0.0000000000000007
    0.0000000000000000     11.9999937223982993      0.0000000000000007
ITEM: ATOMS id type x y z
1      1          4.6528223659515948     6.7871544494104503     7.4670656937259317
2      1          1.5462435911077936     0.8068555779066170     1.7068647070814671
3      1          7.8974202685929287     4.1576378249993384     4.8923170406638468
4      1          2.2642764154805914    10.7202771918612054     5.5631598897233117
5      1          4.2236725904543242     3.3373482541204971     5.8697189293519330
6      1          8.2836532665414140     0.1719923100250182     1.2126569656182156
7      1          8.8252849831955835     4.1888342086794577     1.5019732142671220
8      1          1.2085409677714338     5.4816235323777320     4.7034011394921302
9      1         11.8527957994025019     3.4606709896062129     6.5815633569620884
10     1          0.8056423785412837    10.8231915380232380    11.3086152840816929
11     1          5.5955562727756716     9.3283307200353818     4.9627870037986304
12     1          8.2910248626850827     0.7865671885201585     6.4827458086568832
13     1          7.5420464545009658     6.6455833234710839     7.6014848234067482
14     1          1.6867527176027279     3.5865545237522873     2.7766317474502253
15     1          8.7475694238512158     7.3271097669416010     4.6696835571309352
16     1          5.5967442721541891     3.4262094076342295    11.1089725885215262
17     1          8.9562109147038100     7.6493863983478185     0.6073112822949723
18     1          6.2048199540492783     0.9169351203202939    10.4338721416893527
19     1          9.9821383780065300     9.4707238455447325    10.4699441228188821
20     1          2.6603602082757920     6.8161128342613413     9.3621035023676988
21     1          6.2948691069415270    10.2709722269077961     1.5156472071137947
22     1          2.4775955038861768     2.2830036056837657     9.3244847220473517
23     1          3.0556568014828036     4.0919894593422157    11.1491389675091366
24     1         10.6232524426181261     1.1297526089882828     1.9187677962278098
25     1          3.5641961354487157     9.9152588129934873     7.9842894231487431
26     1          4.6459367695536811     0.6090680813759316     3.4034250195535112
27     1          0.3065434396367822     7.1917186377692701     8.0725553769738436
28     1          5.0833917407062232     6.7816416522943799    11.9834181310695502
29     1          5.9487196880239717     9.0499080656876689    10.7301099867173395
30     1          0.0945851505193162     8.2584244797394426     1.0000230768541789
31     1          4.8256234755535008     0.9417403073438632     6.7353192765271777
32     1          2.8271589210177557     9.0619716593767947     3.1828711349326917
33     1          9.3836986910705278     0.1542419193108471     9.5284378153526070
34     1          6.5560813702925769    11.1596257620231416     7.9275378528374043
35     1         10.9116038917717511     9.8180600638414326     3.3645294399011014
36     1         10.1895654694944184     9.9234536087065148     6.5407141783316725
37     1          0.2858554504593678    11.4164772276554718     7.2690249973277030
38     1          7.9487718417291902     3.2922114777330687     7.6556299950815818
39     1          2.7002121874278764     6.9039203883262470     1.6534323350337443
40     1          0.5606505067047998     5.7002694179966920    11.6673862963964687
41     1         10.7550159736881774     4.6842947494873286     9.3643787011774666
42     1         11.2965816903768719     2.6261722261606790     4.0088295028459946
43     1          8.8704601595629242    11.2056961379221729     4.3933621016840139
44     1          4.2495961768928217     4.2230701907694606     8.4407511843581897
45     1          7.1655346514669960     2.5935862432075059     2.8206993243969882
46     1          7.2197734230928656     6.1577631786662659    10.2996198119212767
47     1          6.1728687707640200     6.3044463019313728     3.8007436117027460
48     1          2.3146391891341245     1.3990696680994403     5.4449827515457612
49     1          3.1981339269482110     8.1136037555000513     5.6528526428020065
50     1          3.9771135194376961    10.3177674024276609     0.2848966509609470
51     1         11.4137904290610255     1.8145034507720084    11.2040257387960143
52     1          4.1744102162251346     2.9697224464379639     2.0561221243731254
53     1         11.2804992987901134     1.6976271119139656     8.5679835177986643
54     1         11.8158406187350025     7.8930114708993209     5.0617929520052778
55     1         10.3420877897048449     5.2942172304162938     5.4790351337318111
56     1          3.8017792111609907     1.1045094221938461    11.8925733785935055
57     1         11.1606061615102607     6.2157351483391716     2.8699160986500329
58     1          8.6701178643687395     2.4843095003738589    10.9761398580108089
59     1         11.9943837253330781    11.9784969336439957     4.5513156190531987
60     1          8.0333165975009742     9.0338148741065609     8.5795815117313623
61     1          2.2782432081740907     5.2917488317075962     7.0908898905161895
62     1         10.5463660828399757    10.6604344231669774     0.7350980154454195
63     1          1.2288701571365492     9.4838026387027732     9.0966024412602646