ITEM: TIMESTEP energy, energy_weight, force_weight, nsims
1        -32212.9388805777671223    1    1   88
ITEM: NUMBER OF ATOMS
16        
ITEM: BOX BOUNDS xy xz yz pp pp pp
   -0.3490508787975282     15.0704924497632220      4.9207140607685220
   -0.2056040608258652      8.8771991745825432     -0.3490508787975282
    0.0000000000000000     19.9958855583690678     -0.2056040608258652
ITEM: ATOMS id type x y z
1      1         -0.2313582799398580     0.0281942651224089     9.9942395411791232
2      1          2.4898792333642663     0.0150397731264314     9.7004679889097893
3      1          4.9890577231533371     0.0349856069293691     9.8838762500168169
4      1          7.4796005383917068    -0.0315993312306755     9.7413115847513136
5      1          0.9617596536329280     2.1006680786734013     9.7787258862195774
6      1          3.6101655565901711     2.0755408556448454    10.0634013101484108
7      1          5.9010989130686955     1.9796043247676627    10.2182614454437548
8      1          8.7586054338927202     2.0352895877393342     9.9814961633127748
9      1          2.1811380480851366     4.2451173822725030     9.7818932344920242
10     1          5.0156758913530517     4.4140252423719852     9.9163535673407210
11     1          7.2442844176625867     4.2757416767697327    10.0842630175514572
12     1          9.7693794428467733     4.2099646449784753     9.8671836847526908
13     1          3.3857339209499542     6.4538946806302979    10.1621449922127489
14     1          6.1710930001576090     6.5032504316389872     9.7649767153096434
15     1          8.5185615502367718     6.5940016536998831    10.1650024042590417
16     1         10.9353535100194286     6.4966608828571086     9.9643236967952475
ITEM: TIMESTEP energy, energy_weight, force_weight, nsims
2        -32213.9477432254134328    1    1   88
ITEM: NUMBER OF ATOMS
16        
ITEM: BOX BOUNDS xy xz yz pp pp pp
    0.0000000000000000     15.6258578738738443      5.1968387818411212
    0.0000000000000000      8.8770469279067061      0.2792407030380243
    0.0000000000000000     19.9974181749058069      0.1586308864415978
ITEM: ATOMS id type x y z
1      1          0.1332895567478692     0.0920259690670059    10.1032235938022303
2      1          2.6941804770949473    -0.0419899383311039    10.2228141537136210
3      1          5.2807570559346981     0.0023213660503833     9.9568344937946502
4      1          7.7559669255821939     0.1188295849719616    10.1814414952515566
5      1          1.6336842425429592     2.3193624251278395     9.8044961618800350
6      1          3.9860639717171789     2.2961943566672951     9.7095684178037587
7      1          6.4150503799530867     2.2896482795100837     9.7503071581096759
8      1          8.9524575839809675     2.1234765072765631     9.8920228614897816
9      1          2.6825938565062653     4.5133882633015867    10.0095596865546064
10     1          5.2792018763512845     4.4453427817639870    10.1781579191872389
11     1          7.9180528798277674     4.4390906894615147     9.8442470297281126
12     1         10.5552905899994744     4.5478209008345800    10.1619060174364932
13     1          4.1681225415159906     6.6902698258272144     9.9978391997622964
14     1          6.5931193054359154     6.5921515117000320     9.7828129613529864
15     1          9.2741707508002769     6.6918769121811739    10.1443802801480061
16     1         11.7044312091696749     6.7124281727643291    10.0951686337613804
ITEM: TIMESTEP energy, energy_weight, force_weight, nsims
3        -32213.5654194362177805    1    1   88
ITEM: NUMBER OF ATOMS
16        
ITEM: BOX BOUNDS xy xz yz pp pp pp
   -0.3490441514729939     15.1636797515542217      4.9511409408281217
   -0.2056090438763499      8.9320906946372585     -0.3490441514729939
    0.0000000000000000     19.9958446152373774     -0.2056090438763499
ITEM: ATOMS id type x y z
1      1         -0.1260080885310108    -0.0000926745218881    10.2784180171278532
2      1          2.2831881512636794     0.0192573732887855    10.1202768808193255
3      1          5.0400634892849752    -0.0651585905760372     9.8004033545093741
4      1          7.5371676463969930    -0.1823851786810342     9.8831041682535332
5      1          1.0333537603998530     2.0656451323380529     9.7255349131010025
6      1          3.6947108089060618     2.0373090419644808     9.8394092486003171
7      1          6.1373405784561683     2.0654290702847988     9.8851857356779806
8      1          8.8563394365144941     2.1860140158316095     9.9867386317253874
9      1          2.1816942899243332     4.4141041748983625    10.1261796541497446
10     1          4.7189957145464509     4.2228994830367919     9.9562589657783800
11     1          7.2252275971984039     4.3238675146642942     9.7899415286066809
12     1          9.7941801943897513     4.2314501866482619     9.7504717309206637
13     1          3.4853720457751982     6.7255398199223428     9.7543989148030974
14     1          6.1040906451870818     6.6067601528840756    10.1982686731565977
15     1          8.5747181532637669     6.6909659844990736     9.9345974673066948
16     1         11.1107843253786864     6.5562298528384986     9.6914599942921758
ITEM: TIMESTEP energy, energy_weight, force_weight, nsims
4        -32213.5766350213089027    1    1   88
ITEM: NUMBER OF ATOMS
16        
ITEM: BOX BOUNDS xy xz yz pp pp pp
   -0.2792414487016808     15.1945420438402330      4.9820032331141340
   -0.1638295476016706      8.9149029918188099     -0.2792414487016808
    0.0000000000000000     19.9973254333649351     -0.1638295476016706
ITEM: ATOMS id type x y z
1      1         -0.1920330223733779     0.0451706835667182     9.6837528346880113
2      1          2.4630673108061747     0.0132638144783784    10.0760903610279140
3      1          4.8835872367175996     0.0005430327773833     9.7029702644294744
4      1          7.5144455507102847     0.0522493512273855     9.6942794267961325
5      1          1.0448342267091506     2.0588998132933618    10.2099264609557956
6      1          3.7404932222628062     2.2282295697375636     9.8626809037355869
7      1          6.1990378598393869     2.1237177932467732     9.8630788505117089
8      1          8.5973101663023197     2.0158165130326262    10.1243179107755576
9      1          2.2698354888016214     4.2974912115802226    10.1458910254530732
10     1          4.9191317541762052     4.3275136899121405    10.1952144286344684
11     1          7.3659055889966254     4.4133835807845019     9.9854444845710120
12     1         10.0299211576024749     4.4717080250963033     9.9131321560714234
13     1          3.5574020480419319     6.5996276961430178     9.8487027732576635
14     1          5.9906392247854807     6.5198889779526885    10.2165355770115234
15     1          8.8601556847598388     6.6980029722255088     9.9248485890428313
16     1         11.4058100652075538     6.6326366643750410    10.0505877719027428
ITEM: TIMESTEP energy, energy_weight, force_weight, nsims
5        -32213.0158417531019950    1    1   88
ITEM: NUMBER OF ATOMS
16        
ITEM: BOX BOUNDS xy xz yz pp pp pp
   -0.2094285333915578     15.2254145486650607      5.0128757379389599
   -0.1223870651077420      8.8975825259958174     -0.2094285333915578
    0.0000000000000000     19.9984794502505494     -0.1223870651077420
ITEM: ATOMS id type x y z
1      1         -0.0864699237004207     0.0642528921118504    10.0742120247363207
2      1          2.6059545614927360     0.0706548485815074    10.0810215069891296
3      1          4.8323503719598220    -0.1658474823798113    10.1112852059411935
4      1          7.5528799086023266    -0.1877050201807340    10.2458729727934355
5      1          1.3190583429791698     2.2195572599964679    10.0552714648489854
6      1          3.7101545464067991     2.0815768629981517     9.8404258002670009
7      1          6.2914858181096323     2.2364031644566689    10.2657774593902680
8      1          8.9405267206495971     2.2283218710922617     9.7338799012999004
9      1          2.5752207851533839     4.5134176157789270     9.7299681987194315
10     1          4.9262808957730533     4.4649786207972122    10.1009479919133600
11     1          7.6367966835363799     4.3492723864854419    10.1722365716096679
12     1         10.0462370490549393     4.4573823661445164    10.2920534615399539
13     1          3.6359620407023456     6.5677747638226789     9.8493891187566032
14     1          6.3170208751945243     6.7381951548921100     9.7505806314888037
15     1          8.9062180458460887     6.7321613740507020     9.8442655083214472
16     1         11.4858067259351220     6.6400200268107037     9.9425100384687486
ITEM: TIMESTEP energy, energy_weight, force_weight, nsims
6        -32213.6070361372949264    1    1   88
ITEM: NUMBER OF ATOMS
16        
ITEM: BOX BOUNDS xy xz yz pp pp pp
   -0.1396156180814353     15.2562870534898849      5.0437482427637841
   -0.0812713838557565      8.8801190846294773     -0.1396156180814353
    0.0000000000000000     19.9992964533554023     -0.0812713838557565
ITEM: ATOMS id type x y z
1      1         -0.1076247474514112     0.0490013819733904    10.2028090797694677
2      1          2.4913932145869113    -0.0323911813893129     9.8772245333681319
3      1          5.1187088258905753    -0.1292679309520751    10.2141806797328449
4      1          7.7812020232702839     0.0708402704059624    10.3144711516574858
5      1          1.2267563667113619     2.1128767479294686     9.8783464938991639
6      1          3.7616019650135346     2.1130827133317172     9.9356124793637033
7      1          6.3893271488963608     2.1846104634738563     9.8815963795728354
8      1          8.8564576898523093     2.2253938679209178     9.7298017194918671
9      1          2.4336766400471586     4.4357045682464271     9.9845447579961277
10     1          4.9585501089339008     4.4849433021658385     9.9075634660878720
11     1          7.4196710316742527     4.3544039008925424     9.9317886138818210
12     1          9.9311498297253706     4.3419023995803689     9.8398078496335479
13     1          3.7660021687638507     6.5226083138567770    10.0087319071268137
14     1          6.0758991131145059     6.5178912155490245     9.7115363620410182
15     1          8.9583144641740624     6.6448246236632142    10.1378493649593242
16     1         11.5830616686248558     6.7189963410014464    10.3169090658951497
ITEM: TIMESTEP energy, energy_weight, force_weight, nsims
7        -32213.9054541307377804    1    1   88
ITEM: NUMBER OF ATOMS
16        
ITEM: BOX BOUNDS xy xz yz pp pp pp
   -0.0698129153101211     15.2871595583147108      5.0746207475886109
   -0.0404722913069077      8.8625126677197841     -0.0698129153101211
    0.0000000000000000     19.9997866552183154     -0.0404722913069077
ITEM: ATOMS id type x y z
1      1         -0.2646972331533165    -0.1479846430846007    10.0133751837934408
2      1          2.3680950419989504    -0.0621181038582031    10.0272350359455054
3      1          5.0896612932431626    -0.0928392249797981    10.2874302603512309
4      1          7.5903092332652822     0.0481406060409326     9.7013065127400768
5      1          1.2976047502420642     2.0769971714844173    10.0036652873723320
6      1          3.6421956979096888     2.0960231592609437    10.2244189325153005
7      1          6.3022983306944136     2.2001025579984428    10.2026091651677842
8      1          8.8623958648545607     2.2949494931892449     9.7163243525394805
9      1          2.4832030135464405     4.5185174895675635     9.7864436045526748
10     1          5.0642261355499318     4.3784367380133862    10.0841884284035714
11     1          7.5778213633231113     4.3788466790272453    10.0493468000715165
12     1         10.2064571992692219     4.4216422547193650     9.7632298521819632
13     1          3.7502739810039691     6.5715588784821435    10.3121999961237201
14     1          6.3770232182397040     6.6506758007209772    10.2883602504306992
15     1          8.9276160563923881     6.7008343094920848     9.7416840820182955
16     1         11.3647497563849171     6.6432224918053153     9.9243921330070428
ITEM: TIMESTEP energy, energy_weight, force_weight, nsims
8        -32213.8882023777041468    1    1   88
ITEM: NUMBER OF ATOMS
16        
ITEM: BOX BOUNDS xy xz yz pp pp pp
    0.0000000000000000     15.3180320631395350      5.1054932524134342
    0.0000000000000000      8.8447632752667431      0.0000000000000012
    0.0000000000000000     19.9999500558392924      0.0000000000000007
ITEM: ATOMS id type x y z
1      1         -0.0144560178552451    -0.0446235996763754     9.7808255751827868
2      1          2.4948141002379756     0.0332846131574842    10.1258347136210425
3      1          4.9961547934102155     0.0867680122066946     9.9150092400974241
4      1          7.5624573913980173     0.0244946874145241     9.7298397025054371
5      1          1.4152443776766879     2.1769545091307836     9.8163374865019346
6      1          3.8643501853937519     2.1640588442754449     9.9786590811501323
7      1          6.5436767985466675     2.3425762393654637     9.9911850498701060
8      1          8.8880671750566602     2.0810993871350805     9.8286514557513147
9      1          2.3887610594559847     4.4139110078446482     9.7714835985117041
10     1          5.1378313113499123     4.4275761671049354    10.2607983765878572
11     1          7.8027148340550303     4.4723430519463703    10.0974687844568454
12     1         10.2141014946031845     4.4728666619322661    10.1248727160233578
13     1          3.7369503228700736     6.5628541516826617     9.7866175607189589
14     1          6.3629384321609015     6.6592859522439127    10.1950605407493189
15     1          9.0509139298561045     6.6412656315468848     9.8805813260713027
16     1         11.5703052638727826     6.5902534593567834    10.2892843054523890
ITEM: TIMESTEP energy, energy_weight, force_weight, nsims
9        -32213.1408412468917959    1    1   88
ITEM: NUMBER OF ATOMS
16        
ITEM: BOX BOUNDS xy xz yz pp pp pp
    0.0000000000000000     15.4187174832744844      5.1363657572382593
    0.0000000000000000      8.8670163973353109      0.0698129153101265
    0.0000000000000000     19.9997866552183190      0.0401454900649616
ITEM: ATOMS id type x y z
1      1          0.2373811112065174     0.1524351465052601    10.1181540660801303
2      1          2.5353540772639325     0.0515900993549395     9.8733126778896185
3      1          5.2481414009689038     0.1587167403485266     9.8426330051605113
4      1          7.7801085752887369    -0.0449445598342800    10.3005061208664159
5      1          1.2933907275020384     2.3424516961403108     9.7923795412319450
6      1          3.7715033332457253     2.1870446825320884     9.7605978802581372
7      1          6.6028362701210748     2.3263335442740725     9.9017323747266826
8      1          8.8541086912849885     2.1885020028823647    10.0561047279823157
9      1          2.5186924563416722     4.3798271195049372    10.2762583795256290
10     1          5.2907316235076243     4.4302559067870790     9.7050324729939437
11     1          7.5688594018307302     4.4609257350454410     9.8413430189212505
12     1         10.3938250310439777     4.4458088865225678    10.2283388906997263
13     1          3.6558873950025306     6.5208259043466432    10.1222300226004638
14     1          6.3875440885574726     6.6573228484426448    10.0791244824224719
15     1          9.1812418867674843     6.7750201103257508    10.3041540819523281
16     1         11.5754408616123801     6.6217019877332959    10.2620445311497654
ITEM: TIMESTEP energy, energy_weight, force_weight, nsims
10       -32213.7431306696744286    1    1   88
ITEM: NUMBER OF ATOMS
16        
ITEM: BOX BOUNDS xy xz yz pp pp pp
    0.0000000000000000     15.5193926908706246      5.1672382620630861
    0.0000000000000000      8.8887997426185894      0.1396156180814387
    0.0000000000000000     19.9993066658942134      0.0799641788879845
ITEM: ATOMS id type x y z
1      1         -0.0325920587025170    -0.0920049734350898    10.3118665091697146
2      1          2.4827616172379945    -0.0140596673316184     9.8091959357064624
3      1          5.1858842624982486    -0.0646509718286777     9.9304877307737787
4      1          7.7371494871411963    -0.0950681288640463     9.8987008327590065
5      1          1.4953145375691528     2.2337368676843781     9.8026261634667158
6      1          3.8358758111212459     2.2721482175271417     9.8981268526576951
7      1          6.3821519631952084     2.2542939817791252    10.0841684029865100
8      1          9.1037811838170715     2.3707144266214644     9.8692018554268124
9      1          2.7385118760089946     4.3249021636932206    10.2118919750775756
10     1          5.2323794568619544     4.3094825099090688     9.8484305755236150
11     1          7.8072542735925596     4.4585903049082471    10.2147478760694650
12     1         10.4281637561908553     4.4225525099397309     9.8961849199804366
13     1          3.7372743467109855     6.5326144454953328    10.2314072985221554
14     1          6.5904063983050829     6.5854105789785802    10.0519475200170874
15     1          8.9384505969056072     6.5823120570385418    10.2487926958068165
16     1         11.5616034598426776     6.5662125135955218     9.9087224853292852
ITEM: TIMESTEP energy, energy_weight, force_weight, nsims
11       -32213.0733018814062234    1    1   88
ITEM: NUMBER OF ATOMS
16        
ITEM: BOX BOUNDS xy xz yz pp pp pp
    0.0000000000000000     15.6200678984667611      5.1981005543490992
    0.0000000000000000      8.9101235236553880      0.2094285333915629
    0.0000000000000000     19.9984998753281715      0.1194662790078737
ITEM: ATOMS id type x y z
1      1          0.1331862685311839    -0.0617455069104198     9.9482417638820735
2      1          2.7820370209321181     0.0352790984677416    10.1343058068721383
3      1          5.0279475458894973    -0.0374329276864771     9.7097476537688596
4      1          7.9596700231001414     0.1801797020054210     9.9027991726153655
5      1          1.5000567079068294     2.3767909640356280    10.2371460926310256
6      1          3.8984348136196441     2.2494569151745942    10.3034291206178157
7      1          6.6936356818599032     2.3353036825898621    10.1831781408674651
8      1          9.0674861776659430     2.3658439403813580    10.2105080907970898
9      1          2.8793709096974287     4.4776092559074989     9.9535413663490360
10     1          5.4107522072151095     4.5192170000165790     9.7513185354597045
11     1          7.8611930920017201     4.4674703691872883    10.0059714334721832
12     1         10.2798297350537844     4.5654125078853838    10.2919179840895758
13     1          4.0915672063749318     6.7724045280724505    10.1946392811460154
14     1          6.3532199094686801     6.5405549342631684    10.2760951709882171
15     1          9.1301145613976775     6.6275118883195141     9.9942563122452164
16     1         11.6735575216192515     6.5359061923941839     9.8897741496465645
ITEM: TIMESTEP energy, energy_weight, force_weight, nsims
12       -32213.9114667608264426    1    1   88
ITEM: NUMBER OF ATOMS
16        
ITEM: BOX BOUNDS xy xz yz pp pp pp
   -0.2792407030380196     15.1011650800547592      4.9513866910600610
   -0.1638377227551530      8.8601170975538643     -0.2792407030380196
    0.0000000000000000     19.9973674260138594     -0.1638377227551530
ITEM: ATOMS id type x y z
1      1         -0.0421431316716928    -0.0754303862568879    10.0906876010605338
2      1          2.6202246697747449     0.0521945977370420     9.7689239599657434
3      1          5.0888197416832019    -0.0234342864132831     9.8095626100488893
4      1          7.5656603368423001     0.0279061662378356    10.0554182441312747
5      1          1.1472852870497101     2.2623195917363708     9.7929567961383270
6      1          3.6508744041564998     2.0968620696563156    10.1613103038622459
7      1          6.0248571493194740     2.1628466090942600    10.2726256496391493
8      1          8.7270383503349489     2.1957373391681037    10.1466142385408666
9      1          2.3321596728110427     4.3878833803295061     9.8581142184225072
10     1          4.8894568869896249     4.4368521266572101    10.1809497184113340
11     1          7.2572490954597919     4.2782668346136496     9.7991839763547883
12     1         10.0483050913720380     4.4682627213580721     9.7382479983342378
13     1          3.4865000933514496     6.6064493390285319    10.2133974467967850
14     1          6.1620345874527152     6.5963425151746105    10.1000743653303058
15     1          8.5780387690453672     6.6301479825351972     9.8320256528785297
16     1         11.2273794518486678     6.4777372310149532    10.1702851223630386
ITEM: TIMESTEP energy, energy_weight, force_weight, nsims
13       -32214.0738321274366172    1    1   88
ITEM: NUMBER OF ATOMS
16        
ITEM: BOX BOUNDS xy xz yz pp pp pp
    0.0000000000000000     15.7207533186017052      5.2289730591739234
    0.0000000000000000      8.9309571028292680      0.2792414487016831
    0.0000000000000000     19.9973764960589939      0.1586313653470093
ITEM: ATOMS id type x y z
1      1          0.1827156561724436     0.0179941819388312     9.9620450553381179
2      1          2.6444233097517817     0.0371496062846070    10.0239949279852603
3      1          5.3022057600588139     0.0312351458748982    10.3132669776890022
4      1          7.7924924107751323     0.1250905819975461    10.0552008340073602
5      1          1.4019774680596597     2.1538081338347501     9.7932931943008263
6      1          4.0939944490119933     2.2474249206492525    10.2389887224320404
7      1          6.4300059151591178     2.2932062661686414     9.8852671280191498
8      1          9.1305114013306738     2.3983511462453810     9.9319070092209074
9      1          2.7118042960470330     4.3782941891713527    10.1648224524834561
10     1          5.3514045648438584     4.5604418779186249     9.7824166212246180
11     1          7.9492378256046665     4.5099860139832320     9.8081732421515433
12     1         10.4165732251779488     4.5306165119667989    10.1896611938292114
13     1          3.9441359320985852     6.5421136566923623     9.9424196300448866
14     1          6.5214416260649033     6.7039509290139367    10.1609549598691178
15     1          9.1475839785871873     6.5878565160968634     9.7950649618583761
16     1         11.7117545993195868     6.7937338591604401     9.9569157282668801
ITEM: TIMESTEP energy, energy_weight, force_weight, nsims
14       -32213.5465030260238564    1    1   88
ITEM: NUMBER OF ATOMS
16        
ITEM: BOX BOUNDS xy xz yz pp pp pp
   -0.3490434371895462     15.2569456261123300      4.9815934759299303
   -0.2056097965251470      8.9870284975925276     -0.3490434371895462
    0.0000000000000000     19.9959072117200023     -0.2056097965251470
ITEM: ATOMS id type x y z
1      1         -0.3018580900043898    -0.0956623026789606    10.1955071703396314
2      1          2.2946666149217081    -0.0954208095031636     9.7918297955494271
3      1          4.7901858307770215    -0.1750683539403774    10.1500844675174875
4      1          7.3389233198612986    -0.1911029805311157    10.1887125610690905
5      1          1.1403730071982368     2.2496369558739437     9.8132794052154395
6      1          3.7747705392966719     2.1958619296163366    10.0818844267904755
7      1          6.3420748441974020     2.2095133020753654    10.0456058523362497
8      1          8.8621232740844675     2.0078403705164898     9.7494464706234663
9      1          2.2745750176196848     4.4026483840154516    10.2132435400364265
10     1          4.8595657291435188     4.2498080705300110    10.2538572271741515
11     1          7.5048978917996649     4.3960584043406561    10.0166597770565655
12     1         10.0471374737630850     4.4745511121017598    10.0256619344832831
13     1          3.3998551900921217     6.6029942404838113    10.1526319460962622
14     1          6.2069126486040869     6.5561920208156685    10.1562612032551876
15     1          8.7121401601657755     6.5794325706223935     9.7116462076304302
16     1         11.3490881532906638     6.5233514568227546    10.2461248098553792
ITEM: TIMESTEP energy, energy_weight, force_weight, nsims
15       -32213.5760054856546049    1    1   88
ITEM: NUMBER OF ATOMS
16        
ITEM: BOX BOUNDS xy xz yz pp pp pp
   -0.2792429700333565     15.2879977403101819      5.0126455901277813
   -0.1638302146825087      8.9697350799237725     -0.2792429700333565
    0.0000000000000000     19.9973868624296323     -0.1638302146825087
ITEM: ATOMS id type x y z
1      1         -0.0147872040390341     0.0609186895253180     9.7673816576384063
2      1          2.4901155450601049    -0.1685243694257302    10.0494088040366254
3      1          5.0739944701612956    -0.1446723924526666    10.1024418739957884
4      1          7.6973820791834715    -0.0339092057192729     9.7911225553214827
5      1          0.9732219001020750     2.1391903254951998    10.0456752919094079
6      1          3.7559719497261135     2.1169622895049023    10.1794838066219846
7      1          6.2768826960476360     2.0691477290449329     9.7732408919890972
8      1          8.8583438101467618     2.0603058890393613     9.7937602106486370
9      1          2.3349168581765412     4.2842216086883340     9.9572268498168821
10     1          5.0268853602475554     4.2738401099525420    10.0644048444447609
11     1          7.6672086698546025     4.4816699557187425     9.7232234279687901
12     1         10.0605369870706980     4.3701996765806728     9.7873570473752860
13     1          3.4828424632160861     6.6429515395678127    10.0547841016252448
14     1          6.2850858149703903     6.7766679483089520    10.0946268952099505
15     1          8.7295527161931599     6.5976646100609573    10.2505005265865314
16     1         11.3401942351133886     6.5598453302825757    10.1989552622099318
ITEM: TIMESTEP energy, energy_weight, force_weight, nsims
16       -32213.7228022601411794    1    1   88
ITEM: NUMBER OF ATOMS
16        
ITEM: BOX BOUNDS xy xz yz pp pp pp
   -0.2094322275250163     15.3190601298601816      5.0437079796777819
   -0.1223897194608215      8.9523080826770638     -0.2094322275250163
    0.0000000000000000     19.9985377018704433     -0.1223897194608215
ITEM: ATOMS id type x y z
1      1         -0.1938644640653806    -0.1340064828324594    10.2408951831567610
2      1          2.3438453115277640    -0.0399843602113511    10.1790817029740506
3      1          5.1739127259565763    -0.0683684426524016    10.2909695217084742
4      1          7.6698298023507645     0.0804123223020312    10.0174775195127754
5      1          1.2078945499513845     2.2756551624044614     9.6947931142780153
6      1          3.7818842241515314     2.2235121145676149    10.1430523374503583
7      1          6.2137129073043438     2.3022233015804665     9.9419470423203506
8      1          8.7592719764920748     2.2393528010854298    10.0493551886095567
9      1          2.3368603683242739     4.4471508213802142     9.9179307983941740
10     1          4.9631426568838810     4.5450814855389243    10.0837366746266124
11     1          7.6119197253781232     4.4887814659453387     9.9005680679614105
12     1          9.9997046768072053     4.4726745503461460    10.1745400350619555
13     1          3.7203978873691801     6.5679435421714150    10.2877477572847038
14     1          6.3560493323150089     6.6563403996574770     9.7264707979977771
15     1          8.9033411229284969     6.7765220539444240    10.2013640736814732
16     1         11.3599548228449621     6.6535278192959355    10.0975476647635247
ITEM: TIMESTEP energy, energy_weight, force_weight, nsims
17       -32213.1338881909468910    1    1   88
ITEM: NUMBER OF ATOMS
16        
ITEM: BOX BOUNDS xy xz yz pp pp pp
   -0.1396214850166760     15.3501225194101831      5.0747703692277835
   -0.0812677601557924      8.9347372305002537     -0.1396214850166760
    0.0000000000000000     19.9993597300424639     -0.0812677601557924
ITEM: ATOMS id type x y z
1      1          0.0103603768071983     0.0251433270415629    10.0505522363665420
2      1          2.5377062795474048     0.0466068270673288     9.8217635609268008
3      1          4.9156916521344893    -0.1155523481203662     9.9228943232737077
4      1          7.7965233075912597     0.0887606408306258     9.8976891302059347
5      1          1.2975339696910699     2.1507860801921477     9.7090911680796879
6      1          3.6074790682308788     2.1548750671785837    10.2980303134740048
7      1          6.1516064255650171     2.1156765261001560     9.9783445480612230
8      1          8.8666546445400769     2.1590375359414891     9.7022193880764451
9      1          2.3321413710584182     4.3073201706693984    10.2905805519745641
10     1          5.0079120067436929     4.3948034614991585    10.0987006949166194
11     1          7.4032843135651492     4.3066902320667246     9.8165357282933687
12     1         10.1934984122030734     4.4481629517564629    10.1949216144497967
13     1          3.6731461675558505     6.5614869180482627     9.9527393677988503
14     1          6.1380277287173746     6.5353959997669175     9.9106687146707326
15     1          8.9163998439950660     6.7389369249707949    10.1264738057737276
16     1         11.2562876650990678     6.6019407965530146     9.7198728229101530
ITEM: TIMESTEP energy, energy_weight, force_weight, nsims
18       -32213.3154654835125257    1    1   88
ITEM: NUMBER OF ATOMS
16        
ITEM: BOX BOUNDS xy xz yz pp pp pp
   -0.0698107425083360     15.3811849089601846      5.1058327587777850
   -0.0404746121195672      8.9170225233933369     -0.0698107425083360
    0.0000000000000000     19.9998529469456692     -0.0404746121195672