ITEM: TIMESTEP energy, energy_weight, force_weight, nsims
1        -134922.7732282215147279    1    1   200
ITEM: NUMBER OF ATOMS
67        
ITEM: BOX BOUNDS xy xz yz pp pp pp
    0.0000000000000000      7.7692745343682015      0.0000000000000008
    0.0000000000000000     13.4567797265269746      0.0000000000000006
    0.0000000000000000      9.3914213643989353      0.0000000000000006
ITEM: ATOMS id type x y z
1      1         -0.0308277044249192     3.0999899011930037     2.3439954669189658
2      1         -0.0140724869641008     0.0281475461539768     4.6032380517349134
3      1          1.3621084344379797     2.3405646113942904     4.7952954360632818
4      1          1.3528233744419562     0.7085721192121689     6.9754810358337185
5      1         -0.0665213054907133     3.0703728746928909     7.1324135651170977
6      1          0.0049878742510647     4.5969314977176730     0.0870227886467934
7      1          1.3296763748217133     6.7069101514640055     0.0942109825591044
8      1          1.3453827402203919     5.2248409878930939     2.2558748211146744
9      1          0.0017123481073754     7.3911604869984480     2.4256698410987343
10     1          0.0815043514302436     4.4776721330693006     4.7040915866250570
11     1          1.2880486018665687     6.8492317452076996     4.7129589666773226
12     1          1.3218247459772809     5.2147685882677886     7.1305399765548998
13     1         -0.0325307294028522     7.5318443906494243     7.1429310179030887
14     1          0.0281892587930487     9.1038815464379770    -0.0972988819037187
15     1          1.3508670711142026    11.3038631800292411     0.0639527620651474
16     1          1.3252758577254475     9.8497410565943806     2.2756184062490501
17     1          0.0269150977694126    11.8217931008557020     2.3583587067536778
18     1         -0.0747365363833541     8.9015951965549061     4.7491882528747649
19     1          1.3529624444561221    11.3607422965773246     4.7408843581043634
20     1          1.2442570859536026     9.7793217282854634     7.1191481824398846
21     1          0.0397918933826748    11.9892775270100298     6.9841840660121077
22     1          3.8857948890897203     0.8281531008960052     2.3408136533607076
23     1          2.5255837114930340     2.9768240333900202     2.4074457879411177
24     1          2.5559157362026612    -0.1114907657122484     4.6361822187390880
25     1          3.9394953377438209     2.2978151135590594     4.7859575458006596
26     1          3.9054527075165795     0.8924092240901720     7.0074494341581328
27     1          2.5891472541685148     2.9127912927393145     7.0225808922604518
28     1          2.6261344394442814     4.5357704338606073    -0.0031480044413465
29     1          3.8681516435496244     6.8696026183577157     0.0492185610865419
30     1          3.8882460952053139     5.2154252791184419     2.3376064829647651
31     1          2.5648092247621523     7.3562105386927126     2.3475407284840264
32     1          2.5657026913336054     4.3910723728172085     4.7450363054895641
33     1          3.8225087095151182     6.8394096416853083     4.6310732855168553
34     1          3.9578013024016991     5.1186683415287684     7.0233134231268748
35     1          2.5526270022922639     7.4956577642868210     7.0869975905410003
36     1          2.5666202426561142     9.0055286347727375     0.0587301926444052
37     1          3.9281498661412830    11.2503778633281861     0.0408808571992286
38     1          3.9063803588959831     9.6272305124603115     2.3924721057177201
39     1          2.5048071175332276    11.8933266505259727     2.4236074849671123
40     1          2.5985985766395743     8.9838053552602055     4.6937694754034460
41     1          3.9074121185541482    11.3251100895394536     4.6915070819967628
42     1          3.8831642127323844     9.8512912776188752     6.9781294166584784
43     1          2.6381434070920551    11.8503120541301286     7.1046703672645268
44     1          5.2350886821107130     0.0294138291262427    -0.0670556876839448
45     1          6.4864095924709622     2.2174889040154739     0.0552882367143530
46     1          6.5386393174557060     0.7754361663173358     2.3203187545171797
47     1          5.2156654957747923     3.1128707307472352     2.3613827444330142
48     1          5.2602028620430579    -0.0841479349859182     4.6075196007349426
49     1          6.4788011419194556     2.1942423170378991     4.7704354045695814
50     1          6.4687329390503674     0.7795351014220363     7.0803052636767303
51     1          5.1904052534812015     2.9017486592957269     7.0483838224591375
52     1          5.1894574019880091     4.3780340989401765    -0.0899726340973511
53     1          6.4395437746247461     6.8018275472650629    -0.0357662891241769
54     1          6.5555918744896973     5.2975089440943117     2.4131332327193977
55     1          5.2212694734964336     7.3833434436553089     2.4049936878228730
56     1          5.1650269182146884     4.3567858437519904     4.6685891964412196
57     1          6.4076439103140839     6.7515018824437982     4.7922150498557574
58     1          6.4791678516774773     5.2548361499035217     7.0021536116507477
59     1          5.1115269168435757     7.5336126115054904     6.9992441493120570
60     1          5.0992864248146788     8.9955087165883647    -0.0237818963210674
61     1          6.5366301830611198    11.0703920888079157     0.0909756378990689
62     1          6.4204787518448612     9.7185213061250710     2.2858550555362451
63     1          5.1629672835356279    11.9166176448766468     2.3550557438598188
64     1          5.1888311984605391     8.8971436938213717     4.6911952868074644
65     1          6.4809656618047313    11.2899179191986399     4.6141621530659824
66     1          6.4901963368790145     9.8449719738592982     7.1313269776652373
67     1          5.2485761427023769    11.9201406298090511     7.0997342361953990
ITEM: TIMESTEP energy, energy_weight, force_weight, nsims
2        -134922.7974722148792353    1    1   200
ITEM: NUMBER OF ATOMS
67        
ITEM: BOX BOUNDS xy xz yz pp pp pp
    0.0000000000000000      7.7692745343682015      0.0000000000000008
    0.0000000000000000     13.4567797265269746      0.0000000000000006
    0.0000000000000000      9.3914213643989353      0.0000000000000006
ITEM: ATOMS id type x y z
1      1         -0.0024348906390707     3.0096666499905820     2.3876308280043728
2      1         -0.0363718587326444     0.1285512710495398     4.6304891391079899
3      1          1.3699670556294932     2.2970494227926199     4.6630388664148601
4      1          1.2095268749300694     0.6755411076954357     6.9985210098669981
5      1          0.0612078986366602     3.0230346149709142     6.9810172787280313
6      1         -0.0596400590356238     4.6318922114471901     0.0602910468751683
7      1          1.2671624611358263     6.6927939895308777    -0.0434137235412070
8      1          1.2557004504152729     5.3163941887625192     2.3579267013709151
9      1         -0.0017939254899850     7.5504335861636491     2.3140199282080776
10     1          0.0768676483881326     4.4388641260159689     4.6359314677886587
11     1          1.2896265415244987     6.8089165788249977     4.6053201298514006
12     1          1.2528001802315933     5.2001975871799040     7.0525057172959729
13     1          0.0654235069990086     7.4692730562770189     7.1225290941310675
14     1         -0.0814289894672591     8.8651205951061556    -0.0366481435902940
15     1          1.2205670140434068    11.2615348793994503     0.0211241240749425
16     1          1.3181125866047601     9.8664853276080962     2.3919978389388179
17     1         -0.0346245488898645    11.9103750447615102     2.2872046027863093
18     1          0.0216537450547384     8.9868412047665096     4.6123430347476981
19     1          1.3729100568231125    11.3553703501104941     4.6448298395314271
20     1          1.2134519124248326     9.7254461649723396     7.0925225637296760
21     1          0.0698745243797484    11.8824347330153230     7.1031555309984489
22     1          3.8762285813555533     0.8225322040042349     2.3845992771879447
23     1          2.6741765254549996     3.0940056712486173     2.3591748212702441
24     1          2.6660762798254680    -0.0513214665210283     4.6551528898951746
25     1          3.8474372037860918     2.2982511132221988     4.6449322060242988
26     1          3.8893299090028592     0.8746624229868281     7.0164191807032701
27     1          2.5711411835076627     3.0033594573327593     6.9465094400666842
28     1          2.6742604336199718     4.4740347655092201    -0.0190504982376832
29     1          3.8072801545003032     6.7846136346388892     0.0599576514167321
30     1          3.8801901344406282     5.2065909032279771     2.2828347744254542
31     1          2.5388777171487917     7.5730961489010937     2.4139634343680112
32     1          2.5337430036090285     4.6189925424013412     4.6016847106412415
33     1          3.8762573276713312     6.6156045553415472     4.6117551317702867
34     1          3.9622600890569730     5.3349134090221666     7.1045398265075619
35     1          2.6031684639206891     7.5623038115604180     7.0025198770839596
36     1          2.5500343953801448     9.0224882142620793     0.0901041139964527
37     1          3.8449859976704994    11.1056098270302090     0.0001521410261033
38     1          3.8016948230375456     9.5845227306422327     2.2702267912437488
39     1          2.5931274535124715    11.9520776051340185     2.3599543092434891
40     1          2.5121995822526788     8.9071999453110049     4.6247425283751138
41     1          3.7995543879033282    11.2392020077653054     4.6556496960853515
42     1          3.8269869193567283     9.7690959213712762     6.9699879934776812
43     1          2.5952803194859460    11.9045025060888534     6.9888553589987588
44     1          5.2581999430680986     0.1157780957331201     0.0312321108894451
45     1          6.5315537390803620     2.1720197909975121    -0.0411832609671622
46     1          6.4698416145264224     0.8273833730956478     2.3010043573391568
47     1          5.2459516817646668     3.0491259651826770     2.2743637123547664
48     1          5.2328425848428273    -0.0891726965358034     4.7197893474356496
49     1          6.5024725675707682     2.1684685468276816     4.7797892602485224
50     1          6.4238288630240801     0.7389037007157606     7.0352151714219779
51     1          5.2457558960464006     3.0381909859769016     7.1209419439204842
52     1          5.2450263611676231     4.3922202361278808    -0.0469270542736286
53     1          6.5083158389480671     6.7413554705299958    -0.0007851228260638
54     1          6.5517655067815213     5.0852295895863211     2.3505525573155892
55     1          5.2365640673447906     7.5330447354010310     2.2985203263882732
56     1          5.2609191891551266     4.5059165680373079     4.7609416167123095
57     1          6.4693630272151053     6.6558322526560261     4.7110290295869390
58     1          6.4814116181630030     5.1565007320519261     6.9668822504324748
59     1          5.1791032898160569     7.5125890845387371     7.0904207636283241
60     1          5.1753010068589367     8.9490101599213236    -0.0527271961082814
61     1          6.4900992209473340    11.0764409112949895     0.0696599288282927
62     1          6.5367645915105639     9.7013396897702400     2.3637982180079375
63     1          5.2401526952522151    11.8730472834780976     2.3904360455659184
64     1          5.2322560046154836     9.0674378955825983     4.6897227119375264
65     1          6.4724443214954359    11.3084559789499046     4.7148071984018358
66     1          6.4996375592931788     9.6825271117125560     6.9981322050225119
67     1          5.1091223263751884    11.8664965231072230     6.9491230726323963
ITEM: TIMESTEP energy, energy_weight, force_weight, nsims
3        -134911.0125128822983243    1    1   200
ITEM: NUMBER OF ATOMS
67        
ITEM: BOX BOUNDS xy xz yz pp pp pp
    0.0000000000000000      7.9105648598512017      0.0000000000000008
    0.0000000000000000     13.7015017760701294      0.0000000000000006
    0.0000000000000000      9.5622116969395314      0.0000000000000006
ITEM: ATOMS id type x y z
1      1          0.0628787069014995     3.0246640633749409     2.3737387311869846
2      1          0.0899708094335179    -0.0848739527518661     4.5046527460995467
3      1          1.3144677115585210     2.4525921104695732     4.9717228013212376
4      1          1.4718128019033911     1.0194616097986759     6.9219301395850357
5      1         -0.0498215285438282     3.1813818406896308     7.0606864372981555
6      1          0.1414701687841212     4.4795525488662369     0.0741539954885964
7      1          1.5004830621249501     7.1354598740407367     0.0289075221810179
8      1          1.1462811920732245     5.0630200407987624     2.4142193981848084
9      1          0.1043751569868213     7.8125004022027547     2.6015670308570962
10     1          0.0747390167958747     4.4218322323341868     4.6650215546900897
11     1          1.3613164498280179     6.7363954139116275     4.9152703721260149
12     1          1.3281379586928299     5.0826529226936943     7.3282447703478821
13     1         -0.1447688743306780     7.7287335307943943     6.8962862002561840
14     1          0.0406199594988505     8.8882806649017905     0.0390329481469072
15     1          1.3112623506773093    11.7622652027947545    -0.1303453763044918
16     1          1.1443336110047297    10.2359370870430286     2.5498316406919743
17     1          0.1278798183548975    12.1562642177172489     2.6629812917018598
18     1         -0.0042218684657017     9.4338881671266783     4.5231106833381487
19     1          1.3355359189497631    11.4053136785245748     4.7444127735250996
20     1          1.2850934110644361     9.8119345235312938     7.3363324890011530
21     1          0.0482789683961591    12.1106765810079082     7.3375401963384768
22     1          3.9921630654151978     1.0823515029508377     2.5193367913692644
23     1          2.8163999891657947     2.7193096544930864     2.1622570324127910
24     1          2.8369057553955015     0.0918055425003806     4.5589584587688057
25     1          3.7610313902835801     2.3886485718308315     4.8452166530130656
26     1          4.1505665893383163     0.5245455536947141     7.1494122871917183
27     1          2.5689266691466961     3.3125134335876880     7.0692254923435236
28     1          2.6088781859148886     4.3845066011958158     0.0039214630169149
29     1          3.7737349663920150     7.2349451082866043    -0.1980879088502903
30     1          3.7421607378104054     5.2790803924557901     2.5319149246354189
31     1          2.5793433009541480     7.6532999127662418     2.3206550691725942
32     1          2.5042198307060857     4.6070957184491403     4.9108421118891625
33     1          3.7770771800453034     6.9738862844966061     4.8073808937706159
34     1          3.8697628953387215     5.5339255851903397     6.9696312326352192
35     1          2.4650380118987565     7.6554167947906437     6.9532215211421020
36     1          2.5763428237028068     9.4185054910826835     0.1388633944841256
37     1          3.9475941519383113    11.4590386371387236    -0.1182769089217845
38     1          3.8024708843019108     9.8064415914692677     2.5051015268160310
39     1          2.6872133454960516    11.8656032993400533     2.2708952319440603
40     1          2.6049980538511321     9.2242853332567130     4.6790808745480996
41     1          4.0886466428978316    11.0857480720005803     4.9093714437301736
42     1          4.1790367122689220    10.2147874489014878     6.9122388380301878
43     1          2.6082231911444937    12.1575781917375743     6.9461626964674208
44     1          5.2602574636522990    -0.2553096736447580    -0.0491210814871784
45     1          6.3891053528873831     2.5414203166340128    -0.0873115987835852
46     1          6.4976501686118313     0.8081515688074117     2.5170160425904173
47     1          5.1703080127439032     3.1901398406248949     2.1622235646718519
48     1          5.3443950225581629     0.1462402389065296     4.8170004787377376
49     1          6.6727742534792167     2.2005817584524925     4.5267529297735134
50     1          6.8134644405681577     0.5417244966215508     7.3884312432107588
51     1          5.3921993570627293     3.0187272026553695     6.9131893218728644
52     1          5.0954368895148692     4.3080700332376534    -0.1280370584008506
53     1          6.5469401071970781     6.7101296350069024    -0.2624196004837903
54     1          6.4241333340868048     5.4947858752168166     2.2315256939454211
55     1          5.3428722388226415     7.8325539202022112     2.2526964306424451
56     1          5.2428660868079167     4.2260884675107153     4.8792026658263294
57     1          6.3960136491794914     7.1282446632054572     4.9030967204146414
58     1          6.7452943568319039     5.4613144765280568     7.4094470720782928
59     1          5.1738669758743505     7.2696537525857456     7.0417111844067488
60     1          5.4116403612623003     8.8868790012700973    -0.1601746956930947
61     1          6.5613903360265686    11.0668016353446301     0.1978871024046545
62     1          6.4098247043683063     9.7493474335683832     2.3344581217571267
63     1          5.1874913417324722    12.2216149005883938     2.2419398987045578
64     1          5.3383450225533489     8.7481156718827702     4.6524176034523537
65     1          6.4965687943954906    11.1239547097031526     4.8890832991727766
66     1          6.7785171471303070     9.7949556225303880     7.2447571000219035
67     1          5.0843225458867805    11.8322634350683398     7.3817262203688641
ITEM: TIMESTEP energy, energy_weight, force_weight, nsims
4        -134922.8990014713490382    1    1   200
ITEM: NUMBER OF ATOMS
67        
ITEM: BOX BOUNDS xy xz yz pp pp pp
    0.0000000000000000      7.7692745343682015      0.0000000000000008
    0.0000000000000000     13.4567797265269746      0.0000000000000006
    0.0000000000000000      9.3914213643989353      0.0000000000000006
ITEM: ATOMS id type x y z
1      1         -0.0841715433778913     3.1015549246751988     2.4210013655384910
2      1         -0.0214657286110056    -0.0150123834629132     4.7247104522305952
3      1          1.2714806239220282     2.2730586758961677     4.6586333506528206
4      1          1.3397220467946511     0.7716319346886469     6.9671790193475900
5      1         -0.0410784852455644     3.0479135093293173     7.0204396481893685
6      1         -0.0539785886824297     4.5130580810381753    -0.0465072577386400
7      1          1.3266820964161676     6.6249099185224400     0.0025892148701648
8      1          1.3125109396654802     5.3055655181165831     2.4086234721802136
9      1         -0.0402036649329945     7.5474233045388255     2.3583239584946294
10     1          0.0733326284749951     4.4079808165435903     4.6518734055547259
11     1          1.2858429048262614     6.8632617837505761     4.6559502215690118
12     1          1.3438366545880529     5.1316258747274412     6.9673480649321498
13     1         -0.0601505003725312     7.5103229628327908     7.0522840797517725
14     1          0.0438171545189303     9.0214480051892192     0.0191998218373772
15     1          1.3534014084673136    11.2360127509701186     0.0371477672068800
16     1          1.3026004530694404     9.5747948245779266     2.2986480497188291
17     1          0.0656255081369022    11.9162677686037561     2.4226176291553041
18     1         -0.0013767154474892     8.8686193578350530     4.7904288015122498
19     1          1.3462482374035210    11.1704082584473543     4.7304194972780138
20     1          1.3566373113108785     9.7451590015937306     7.0493069991792581
21     1          0.0404079968532502    11.9539871221772103     7.0094685897514788
22     1          3.8573072901545529     0.7492102483083073     2.3298848563189565
23     1          2.5439153147568758     3.0036972225038947     2.3610728275279889
24     1          2.5850163308985907    -0.1235897563643688     4.6658037008645392
25     1          3.8423630905876962     2.2346664833363863     4.7150861236163593
26     1          3.9004011252143331     0.8391297961189336     7.0525592483977499
27     1          2.5939859583485192     3.0043835182699481     6.9788769737990854
28     1          2.5862345531455797     4.5240778379562290    -0.0526520647373662
29     1          3.9068589462073002     6.6585760900422652    -0.0131639553264780
30     1          3.8422240205735307     5.0862738356930999     2.3990198046929794
31     1          2.6156062955227593     7.5959794028260532     2.2784790331966458
32     1          2.6698140778039532     4.4559434708448764     4.7357679117450386
33     1          3.9127169792062144     6.7836164872611544     4.6463136841070023
34     1          3.8451118599179557     5.2812760307102016     6.9718831823090177
35     1          2.5258416514075761     7.4751550146954848     7.0975009561949447
36     1          2.5694995357985508     8.8844310740137207     0.0501802426342564
37     1          3.8928299671805915    11.1361190380261910     0.0674501273812496
38     1          3.8427360157653458     9.8272480492814900     2.4224448270021997
39     1          2.5270839584056217    11.8410645551020597     2.3997119524475354
40     1          2.5361452632950554     8.9315150005988677     4.5928736791171625
41     1          3.8223556548067923    11.0807713030109856     4.6011240427857869
42     1          3.9506116157475950     9.6821664700158845     6.9582703170413209
43     1          2.6284434678358966    11.8352996706672151     7.0973281540418389
44     1          5.2487354128303307     0.0625605689486239     0.0684615834621954
45     1          6.5141583333979121     2.2300817584835579     0.0359015255918242
46     1          6.4467497767553734     0.6007456346194532     2.3398350672545374
47     1          5.2357063394361960     3.0928160919207919     2.3568448096297363
48     1          5.1532502518754919    -0.1152007998828518     4.6924499807017481
49     1          6.5524709569092412     2.3010972221343589     4.7159773695038405
50     1          6.4620319397644748     0.6512704597806718     7.0785950858462723
51     1          5.1065219501885339     2.9367093730252436     7.0294450821356911
52     1          5.1606901091696029     4.4400173720385325     0.0108170391275147
53     1          6.5471155959727012     6.7739720132311518     0.0081414231807974
54     1          6.3906587223270490     5.3591261927841067     2.4028336609090615
55     1          5.2567750581184960     7.5426192341764544     2.4288338109563998
56     1          5.1136922136563037     4.6017315310461244     4.6934163579601451
57     1          6.5585651758540005     6.7268409879169644     4.7861838790555415
58     1          6.4747230497163661     5.1003684667786642     6.9615272619704944
59     1          5.2143501575961251     7.3843473194229077     7.1408724183400114
60     1          5.1051708733470091     9.1146927232702684    -0.0630183156393897
61     1          6.4718142333306998    11.2641131983950515    -0.0656488527635579
62     1          6.4704250870439539     9.8657196368416589     2.3225604867968617
63     1          5.1555336416611448    11.9345649519979151     2.2629850662296609
64     1          5.1683537215703055     9.0976295265770339     4.6471767557303902
65     1          6.4278067315856768    11.2084303895646560     4.7900888320588582
66     1          6.5365454979686941     9.6873648240242414     7.0178861207203891
67     1          5.2107623066161537    11.9820593103647202     7.0184373971544796
ITEM: TIMESTEP energy, energy_weight, force_weight, nsims
5        -134922.6336477732402273    1    1   200
ITEM: NUMBER OF ATOMS
67        
ITEM: BOX BOUNDS xy xz yz pp pp pp
    0.0000000000000000      7.7692745343682015      0.0000000000000008
    0.0000000000000000     13.4567797265269746      0.0000000000000006
    0.0000000000000000      9.3914213643989353      0.0000000000000006
ITEM: ATOMS id type x y z
1      1         -0.0578337027063831     3.1361657621318262     2.3456361482313266
2      1          0.0497132569630621     0.0886842154317310     4.6885121577236557
3      1          1.2491408519259057     2.3730802282474976     4.7387609577338727
4      1          1.3080117527826276     0.6610508472859116     7.1131348553402596
5      1          0.0285404300020022     2.9182022638673515     6.9424739463064027
6      1         -0.0538527264349729     4.5941607467719816     0.0441941506565885
7      1          1.3260116080238515     6.6466601115944259     0.0037903776626714
8      1          1.2521436765334393     5.2613505769691331     2.3506924894939192
9      1         -0.0160505442605507     7.4929300750362540     2.3204868609596025
10     1         -0.0783018564671759     4.4631172801170882     4.7224161279912718
11     1          1.2481199692520901     6.6232520432601323     4.6718780722030324
12     1          1.2822581615561039     5.1544041657705328     7.0698864208150658
13     1          0.0067305225291241     7.5111693942775890     6.9892347724218800
14     1         -0.0674947955898697     8.9811691721117786    -0.0780408332538823
15     1          1.3802830983562275    11.1256846510262424    -0.0286785834204650
16     1          1.3068440308201121     9.8175093777934013     2.4110727548720488
17     1         -0.0148424220704561    11.9400364786347204     2.3126807115215140
18     1          0.0591715717812025     8.8310439918046697     4.6751537999749351
19     1          1.3549327324780378    11.2837331832363272     4.6954683835282660
20     1          1.2971285530148851     9.6334623471516654     7.0222296531014239
21     1          0.0680316524601963    12.0936335081112727     7.1428709128063552
22     1          3.9543501906535319     0.6288945264514024     2.3562052538348208
23     1          2.5344779769799790     2.8611630116405209     2.3281784350570454
24     1          2.5570694734710151     0.0087388327544069     4.7719539974042036
25     1          3.8835270378531392     2.3362221085765400     4.7625691500347607
26     1          3.8411751685113913     0.6120654777254080     7.0762284476624444
27     1          2.5789034656949501     2.9434754418717417     7.0334279839363330
28     1          2.6746465665643298     4.3850464268556699    -0.0190908813495502
29     1          3.8519146367002484     6.6196160213780244     0.0376455125391931
30     1          3.8701631087265724     5.3376666661542140     2.2719670216225718
31     1          2.6162053065893587     7.6099192809447622     2.3879116315031683
32     1          2.5819699983536655     4.5126974393415047     4.7381552110558687
33     1          3.9365057209029959     6.6432663117473956     4.6865333852421767
34     1          3.8992613726401419     5.1002984915240859     6.9986177415070516
35     1          2.6419581208884297     7.3720935758039330     7.0581837706528878
36     1          2.6229179597870527     8.8423221188934740    -0.0488128516835999
37     1          3.9638240440207420    11.2900390302161782    -0.0757540221516511
38     1          3.8621296788580359     9.8390240772201736     2.2853723364781149
39     1          2.6496978721795670    11.8324105000599307     2.4283294916291318
40     1          2.5382118903211972     8.9859772795080666     4.6943714655129041
41     1          3.8787706879831996    11.2338906168072441     4.6854073538205858
42     1          3.9676193346307809     9.5930408722091229     6.9676307467152174
43     1          2.5538483322490668    12.0939147548075567     7.0013694279668206
44     1          5.1950559412174746    -0.1110130500319569     0.0099004364023494
45     1          6.4515395345058106     2.2142431287454358    -0.0926444934755226
46     1          6.5394667451936161     0.6873413578376270     2.2676563592163128
47     1          5.2260654466664986     2.8453378386821253     2.4078007836686925
48     1          5.2325667755968572    -0.1187856860019986     4.7465530200399142
49     1          6.4848339835953928     2.3012264072197341     4.7116610722447625
50     1          6.4583298804488489     0.6998776938308598     7.1264594039720679
51     1          5.1645615386700792     2.9616272920448541     6.9872907481994497
52     1          5.1615462832232906     4.5809448434025581     0.0436250305219059
53     1          6.4712090068444708     6.7242519034975796     0.0717955380465570
54     1          6.4278859781859277     5.2182606226068220     2.4071781324322328
55     1          5.1622898027962307     7.5294087135189232     2.2617378854724683
56     1          5.1479624836274009     4.3878117950894708     4.6254281021347152
57     1          6.5081992998300517     6.7676554008275209     4.5987010560737724
58     1          6.3919188986565230     5.3484078677319271     6.9788281384079900
59     1          5.1693753811715739     7.5102045431711968     7.0808922275120052
60     1          5.1632904853562573     8.8707172697944188    -0.0119421314069697
61     1          6.4030118688366944    11.1891481698945157     0.0665025329655817
62     1          6.5360863338437136     9.6178915073301017     2.4408322908915565
63     1          5.1745481641565574    11.8257601595190813     2.4211760459758693
64     1          5.2150734770552747     9.0592131118137438     4.7209745448118374
65     1          6.4596522109745989    11.0864783232930062     4.7221109067969289
66     1          6.4220761146891272     9.5806714002845013     7.0437463385893979
67     1          5.1854570025302626    11.8836391148008467     7.0510359598524444
ITEM: TIMESTEP energy, energy_weight, force_weight, nsims
6        -134923.1247961941699032    1    1   200