ITEM: TIMESTEP energy, energy_weight, force_weight, nsims
1        -20138.5591580613290716    1    1   116
ITEM: NUMBER OF ATOMS
10        
ITEM: BOX BOUNDS xy xz yz pp pp pp
   -1.3079674063532996      2.6159348127066009     -1.3079674063532996
    0.0000000000000000      2.2654649461742364      0.0000000000000015
    0.0000000000000000     23.7158688168870775      0.0000000000000025
ITEM: ATOMS id type x y z
1      1          0.0000000000000000     0.0000000000000000     0.0000000000000000
2      1          1.3079674063533000     0.7551546799960853     2.3715868816887080
3      1          0.0000000000000003     0.0000000000000005     4.7431737633774160
4      1          1.3079674063533002     0.7551546799960859     7.1147606450661227
5      1          0.0000000000000006     0.0000000000000010     9.4863475267548321
6      1          1.3079674063533004     0.7551546799960863    11.8579344084435387
7      1          0.0000000000000009     0.0000000000000015    14.2295212901322454
8      1          1.3079674063533009     0.7551546799960869    16.6011081718209539
9      1          0.0000000000000012     0.0000000000000020    18.9726950535096641
10     1          1.3079674063533011     0.7551546799960873    21.3442819351983708
ITEM: TIMESTEP energy, energy_weight, force_weight, nsims
2        -20138.3935978046974924    1    1   116
ITEM: NUMBER OF ATOMS
10        
ITEM: BOX BOUNDS xy xz yz pp pp pp
   -1.3079674063532996      3.7931054784245690     -1.3079674063532996
   -0.0000000000000009      2.2654649461742338      1.1771706657179695
    0.0000000000000000     23.7158688168870775     -0.0000000000000009
ITEM: ATOMS id type x y z
1      1          0.0000000000000000     0.0000000000000000     0.0000000000000000
2      1          1.3079674063532998     0.7551546799960850     2.3715868816887080
3      1         -0.0000000000000001    -0.0000000000000002     4.7431737633774160
4      1          1.3079674063532998     0.7551546799960849     7.1147606450661227
5      1         -0.0000000000000001    -0.0000000000000003     9.4863475267548321
6      1          2.4851380720712695     0.7551546799960847    11.8579344084435387
7      1          1.1771706657179695    -0.0000000000000005    14.2295212901322454
8      1          2.4851380720712690     0.7551546799960845    16.6011081718209539
9      1          1.1771706657179697    -0.0000000000000007    18.9726950535096641
10     1          2.4851380720712695     0.7551546799960843    21.3442819351983708
ITEM: TIMESTEP energy, energy_weight, force_weight, nsims
3        -20138.3896488868922461    1    1   116
ITEM: NUMBER OF ATOMS
10        
ITEM: BOX BOUNDS xy xz yz pp pp pp
   -1.3079674063532996      3.9239022190599018     -1.3079674063532996
    0.0000000000000000      2.2654649461742373      1.3079674063533022
    0.0000000000000000     23.7158688168870775      0.0000000000000037
ITEM: ATOMS id type x y z
1      1          0.0000000000000000     0.0000000000000000     0.0000000000000000
2      1          1.3079674063533000     0.7551546799960854     2.3715868816887080
3      1          0.0000000000000005     0.0000000000000007     4.7431737633774160
4      1          1.3079674063533004     0.7551546799960862     7.1147606450661227
5      1          0.0000000000000010     0.0000000000000015     9.4863475267548321
6      1          2.6159348127066009     0.7551546799960870    11.8579344084435387
7      1          1.3079674063533011     0.0000000000000022    14.2295212901322454
8      1          2.6159348127066009     0.7551546799960877    16.6011081718209539
9      1          1.3079674063533018     0.0000000000000030    18.9726950535096641
10     1          2.6159348127066018     0.7551546799960884    21.3442819351983708
ITEM: TIMESTEP energy, energy_weight, force_weight, nsims
4        -20138.3935651510219031    1    1   116
ITEM: NUMBER OF ATOMS
10        
ITEM: BOX BOUNDS xy xz yz pp pp pp
   -1.3079674063532996      4.0546989596952283     -1.3079674063532996
    0.0000000000000000      2.2654649461742360      1.4387641469886292
    0.0000000000000000     23.7158688168870739      0.0000000000000024
ITEM: ATOMS id type x y z
1      1          0.0000000000000000     0.0000000000000000     0.0000000000000000
2      1          1.3079674063532996     0.7551546799960853     2.3715868816887076
3      1         -0.0000000000000001     0.0000000000000005     4.7431737633774151
4      1          1.3079674063532996     0.7551546799960858     7.1147606450661218
5      1         -0.0000000000000002     0.0000000000000010     9.4863475267548303
6      1          2.7467315533419296     0.7551546799960863    11.8579344084435370
7      1          1.4387641469886294     0.0000000000000014    14.2295212901322436
8      1          2.7467315533419292     0.7551546799960868    16.6011081718209503
9      1          1.4387641469886294     0.0000000000000019    18.9726950535096606
10     1          2.7467315533419292     0.7551546799960872    21.3442819351983673
ITEM: TIMESTEP energy, energy_weight, force_weight, nsims
5        -20138.4048574722437479    1    1   116
ITEM: NUMBER OF ATOMS
10        
ITEM: BOX BOUNDS xy xz yz pp pp pp
   -1.3079674063532996      4.1854957003305611     -1.3079674063532996
    0.0000000000000000      2.2654649461742364      1.5695608876239615
    0.0000000000000000     23.7158688168870775      0.0000000000000029
ITEM: ATOMS id type x y z
1      1          0.0000000000000000     0.0000000000000000     0.0000000000000000
2      1          1.3079674063533000     0.7551546799960854     2.3715868816887080
3      1          0.0000000000000004     0.0000000000000006     4.7431737633774160
4      1          1.3079674063533002     0.7551546799960860     7.1147606450661227
5      1          0.0000000000000007     0.0000000000000011     9.4863475267548321
6      1          2.8775282939772611     0.7551546799960865    11.8579344084435387
7      1          1.5695608876239608     0.0000000000000017    14.2295212901322454
8      1          2.8775282939772611     0.7551546799960871    16.6011081718209539
9      1          1.5695608876239613     0.0000000000000023    18.9726950535096641
10     1          2.8775282939772615     0.7551546799960877    21.3442819351983708
ITEM: TIMESTEP energy, energy_weight, force_weight, nsims
6        -20138.4223661008618365    1    1   116
ITEM: NUMBER OF ATOMS
10        
ITEM: BOX BOUNDS xy xz yz pp pp pp
   -1.3079674063532996      4.3162924409658912     -1.3079674063532996
    0.0000000000000000      2.2654649461742391      1.7003576282592918
    0.0000000000000000     23.7158688168870739      0.0000000000000051
ITEM: ATOMS id type x y z
1      1          0.0000000000000000     0.0000000000000000     0.0000000000000000
2      1          1.3079674063533002     0.7551546799960857     2.3715868816887076
3      1          0.0000000000000004     0.0000000000000010     4.7431737633774151
4      1          1.3079674063533004     0.7551546799960867     7.1147606450661218
5      1          0.0000000000000009     0.0000000000000021     9.4863475267548303
6      1          3.0083250346125907     0.7551546799960877    11.8579344084435370
7      1          1.7003576282592909     0.0000000000000031    14.2295212901322436
8      1          3.0083250346125907     0.7551546799960887    16.6011081718209503
9      1          1.7003576282592914     0.0000000000000041    18.9726950535096606
10     1          3.0083250346125912     0.7551546799960898    21.3442819351983673
ITEM: TIMESTEP energy, energy_weight, force_weight, nsims
7        -20138.4446707380411681    1    1   116
ITEM: NUMBER OF ATOMS
10        
ITEM: BOX BOUNDS xy xz yz pp pp pp
   -1.3079674063532996      4.4470891816012195     -1.3079674063532996
    0.0000000000000000      2.2654649461742360      1.8311543688946204
    0.0000000000000000     23.7158688168870739      0.0000000000000023
ITEM: ATOMS id type x y z
1      1          0.0000000000000000     0.0000000000000000     0.0000000000000000
2      1          1.3079674063533000     0.7551546799960853     2.3715868816887076
3      1          0.0000000000000001     0.0000000000000005     4.7431737633774151
4      1          1.3079674063532998     0.7551546799960858     7.1147606450661218
5      1          0.0000000000000002     0.0000000000000009     9.4863475267548303
6      1          3.1391217752479199     0.7551546799960862    11.8579344084435370
7      1          1.8311543688946201     0.0000000000000014    14.2295212901322436
8      1          3.1391217752479199     0.7551546799960867    16.6011081718209503
9      1          1.8311543688946204     0.0000000000000018    18.9726950535096606
10     1          3.1391217752479199     0.7551546799960872    21.3442819351983673
ITEM: TIMESTEP energy, energy_weight, force_weight, nsims
8        -20138.4701201962743653    1    1   116
ITEM: NUMBER OF ATOMS
10        
ITEM: BOX BOUNDS xy xz yz pp pp pp
   -1.3079674063532996      4.5778859222365513     -1.3079674063532996
    0.0000000000000000      2.2654649461742342      1.9619511095299518
    0.0000000000000000     23.7158688168870775      0.0000000000000004
ITEM: ATOMS id type x y z
1      1          0.0000000000000000     0.0000000000000000     0.0000000000000000
2      1          1.3079674063533000     0.7551546799960851     2.3715868816887080
3      1          0.0000000000000004     0.0000000000000001     4.7431737633774160
4      1          1.3079674063533007     0.7551546799960852     7.1147606450661227
5      1          0.0000000000000009     0.0000000000000002     9.4863475267548321
6      1          3.2699185158832513     0.7551546799960853    11.8579344084435387
7      1          1.9619511095299509     0.0000000000000002    14.2295212901322454
8      1          3.2699185158832509     0.7551546799960853    16.6011081718209539
9      1          1.9619511095299513     0.0000000000000003    18.9726950535096641
10     1          3.2699185158832513     0.7551546799960854    21.3442819351983708
ITEM: TIMESTEP energy, energy_weight, force_weight, nsims
9        -20138.4966563416091958    1    1   116
ITEM: NUMBER OF ATOMS
10        
ITEM: BOX BOUNDS xy xz yz pp pp pp
   -1.3079674063532996      4.7086826628718796     -1.3079674063532996
    0.0000000000000000      2.2654649461742351      2.0927478501652801
    0.0000000000000000     23.7158688168870810      0.0000000000000013
ITEM: ATOMS id type x y z
1      1          0.0000000000000000     0.0000000000000000     0.0000000000000000
2      1          1.3079674063533000     0.7551546799960852     2.3715868816887080
3      1          0.0000000000000001     0.0000000000000003     4.7431737633774160
4      1          1.3079674063532998     0.7551546799960855     7.1147606450661245
5      1          0.0000000000000002     0.0000000000000005     9.4863475267548321
6      1          3.4007152565185796     0.7551546799960858    11.8579344084435405
7      1          2.0927478501652796     0.0000000000000008    14.2295212901322490
8      1          3.4007152565185796     0.7551546799960860    16.6011081718209574
9      1          2.0927478501652801     0.0000000000000011    18.9726950535096641
10     1          3.4007152565185801     0.7551546799960863    21.3442819351983744
ITEM: TIMESTEP energy, energy_weight, force_weight, nsims
10       -20138.5215958582812164    1    1   116
ITEM: NUMBER OF ATOMS
10        
ITEM: BOX BOUNDS xy xz yz pp pp pp
   -1.3079674063532996      4.8394794035072106     -1.3079674063532996
    0.0000000000000000      2.2654649461742387      2.2235445908006106
    0.0000000000000000     23.7158688168870775      0.0000000000000050
ITEM: ATOMS id type x y z
1      1          0.0000000000000000     0.0000000000000000     0.0000000000000000
2      1          1.3079674063533000     0.7551546799960855     2.3715868816887080
3      1          0.0000000000000002     0.0000000000000010     4.7431737633774160
4      1          1.3079674063533000     0.7551546799960865     7.1147606450661227
5      1          0.0000000000000003     0.0000000000000020     9.4863475267548321
6      1          3.5315119971539102     0.7551546799960875    11.8579344084435387
7      1          2.2235445908006102     0.0000000000000030    14.2295212901322454
8      1          3.5315119971539097     0.7551546799960885    16.6011081718209539
9      1          2.2235445908006106     0.0000000000000040    18.9726950535096641
10     1          3.5315119971539102     0.7551546799960895    21.3442819351983708
ITEM: TIMESTEP energy, energy_weight, force_weight, nsims
11       -20138.5417801834737475    1    1   116
ITEM: NUMBER OF ATOMS
10        
ITEM: BOX BOUNDS xy xz yz pp pp pp
   -1.3079674063532996      4.9702761441425416     -1.3079674063532996
    0.0000000000000000      2.2654649461742342      2.3543413314359420
    0.0000000000000000     23.7158688168870775      0.0000000000000004
ITEM: ATOMS id type x y z
1      1          0.0000000000000000     0.0000000000000000     0.0000000000000000
2      1          1.3079674063533002     0.7551546799960851     2.3715868816887080
3      1          0.0000000000000005     0.0000000000000001     4.7431737633774160
4      1          1.3079674063533004     0.7551546799960852     7.1147606450661227
5      1          0.0000000000000010     0.0000000000000002     9.4863475267548321
6      1          3.6623087377892407     0.7551546799960853    11.8579344084435387
7      1          2.3543413314359412     0.0000000000000002    14.2295212901322454
8      1          3.6623087377892412     0.7551546799960853    16.6011081718209539
9      1          2.3543413314359416     0.0000000000000003    18.9726950535096641
10     1          3.6623087377892416     0.7551546799960854    21.3442819351983708
ITEM: TIMESTEP energy, energy_weight, force_weight, nsims
12       -20138.5547356652277813    1    1   116
ITEM: NUMBER OF ATOMS
10        
ITEM: BOX BOUNDS xy xz yz pp pp pp
   -1.3079674063532996      2.7467315533419310     -1.3079674063532996
    0.0000000000000000      2.2654649461742360      0.1307967406353315
    0.0000000000000000     23.7158688168870775      0.0000000000000020
ITEM: ATOMS id type x y z
1      1          0.0000000000000000     0.0000000000000000     0.0000000000000000
2      1          1.3079674063532998     0.7551546799960853     2.3715868816887080
3      1          0.0000000000000003     0.0000000000000004     4.7431737633774160
4      1          1.3079674063533002     0.7551546799960857     7.1147606450661227
5      1          0.0000000000000006     0.0000000000000008     9.4863475267548321
6      1          1.4387641469886305     0.7551546799960861    11.8579344084435387
7      1          0.1307967406353309     0.0000000000000012    14.2295212901322454
8      1          1.4387641469886310     0.7551546799960865    16.6011081718209539
9      1          0.1307967406353312     0.0000000000000016    18.9726950535096641
10     1          1.4387641469886312     0.7551546799960869    21.3442819351983708
ITEM: TIMESTEP energy, energy_weight, force_weight, nsims
13       -20138.5547221955857822    1    1   116
ITEM: NUMBER OF ATOMS
10        
ITEM: BOX BOUNDS xy xz yz pp pp pp
   -1.3079674063532996      5.1010728847778726     -1.3079674063532996
    0.0000000000000000      2.2654649461742351      2.4851380720712726
    0.0000000000000000     23.7158688168870810      0.0000000000000015
ITEM: ATOMS id type x y z
1      1          0.0000000000000000     0.0000000000000000     0.0000000000000000
2      1          1.3079674063533002     0.7551546799960852     2.3715868816887080
3      1          0.0000000000000006     0.0000000000000003     4.7431737633774160
4      1          1.3079674063533007     0.7551546799960855     7.1147606450661245
5      1          0.0000000000000013     0.0000000000000006     9.4863475267548321
6      1          3.7931054784245712     0.7551546799960859    11.8579344084435405
7      1          2.4851380720712712     0.0000000000000009    14.2295212901322490
8      1          3.7931054784245717     0.7551546799960862    16.6011081718209574
9      1          2.4851380720712721     0.0000000000000012    18.9726950535096641
10     1          3.7931054784245721     0.7551546799960864    21.3442819351983744
ITEM: TIMESTEP energy, energy_weight, force_weight, nsims
14       -20138.5418166467425181    1    1   116
ITEM: NUMBER OF ATOMS
10        
ITEM: BOX BOUNDS xy xz yz pp pp pp
   -1.3079674063532996      2.8775282939772628     -1.3079674063532996
    0.0000000000000000      2.2654649461742395      0.2615934812706633
    0.0000000000000000     23.7158688168870739      0.0000000000000059
ITEM: ATOMS id type x y z
1      1          0.0000000000000000     0.0000000000000000     0.0000000000000000
2      1          1.3079674063533002     0.7551546799960857     2.3715868816887076
3      1          0.0000000000000007     0.0000000000000012     4.7431737633774151
4      1          1.3079674063533007     0.7551546799960869     7.1147606450661218
5      1          0.0000000000000013     0.0000000000000024     9.4863475267548303
6      1          1.5695608876239615     0.7551546799960881    11.8579344084435370
7      1          0.2615934812706620     0.0000000000000035    14.2295212901322436
8      1          1.5695608876239622     0.7551546799960892    16.6011081718209503
9      1          0.2615934812706626     0.0000000000000047    18.9726950535096606
10     1          1.5695608876239628     0.7551546799960904    21.3442819351983673
ITEM: TIMESTEP energy, energy_weight, force_weight, nsims
15       -20138.5216615737990651    1    1   116
ITEM: NUMBER OF ATOMS
10        
ITEM: BOX BOUNDS xy xz yz pp pp pp
   -1.3079674063532996      3.0083250346125916     -1.3079674063532996
    0.0000000000000000      2.2654649461742387      0.3923902219059920
    0.0000000000000000     23.7158688168870775      0.0000000000000048
ITEM: ATOMS id type x y z
1      1          0.0000000000000000     0.0000000000000000     0.0000000000000000
2      1          1.3079674063533000     0.7551546799960855     2.3715868816887080
3      1          0.0000000000000004     0.0000000000000010     4.7431737633774160
4      1          1.3079674063533004     0.7551546799960865     7.1147606450661227
5      1          0.0000000000000009     0.0000000000000019     9.4863475267548321
6      1          1.7003576282592907     0.7551546799960875    11.8579344084435387
7      1          0.3923902219059912     0.0000000000000029    14.2295212901322454
8      1          1.7003576282592912     0.7551546799960884    16.6011081718209539
9      1          0.3923902219059917     0.0000000000000038    18.9726950535096641
10     1          1.7003576282592918     0.7551546799960894    21.3442819351983708
ITEM: TIMESTEP energy, energy_weight, force_weight, nsims
16       -20138.4967468195027323    1    1   116
ITEM: NUMBER OF ATOMS
10        
ITEM: BOX BOUNDS xy xz yz pp pp pp
   -1.3079674063532996      3.1391217752479204     -1.3079674063532996
    0.0000000000000000      2.2654649461742382      0.5231869625413208
    0.0000000000000000     23.7158688168870775      0.0000000000000044
ITEM: ATOMS id type x y z
1      1          0.0000000000000000     0.0000000000000000     0.0000000000000000
2      1          1.3079674063532998     0.7551546799960855     2.3715868816887080
3      1          0.0000000000000002     0.0000000000000009     4.7431737633774160
4      1          1.3079674063533000     0.7551546799960864     7.1147606450661227
5      1          0.0000000000000004     0.0000000000000018     9.4863475267548321
6      1          1.8311543688946199     0.7551546799960873    11.8579344084435387
7      1          0.5231869625413205     0.0000000000000027    14.2295212901322454
8      1          1.8311543688946206     0.7551546799960882    16.6011081718209539
9      1          0.5231869625413207     0.0000000000000035    18.9726950535096641
10     1          1.8311543688946206     0.7551546799960891    21.3442819351983708
ITEM: TIMESTEP energy, energy_weight, force_weight, nsims
17       -20138.4702256404307263    1    1   116
ITEM: NUMBER OF ATOMS
10        
ITEM: BOX BOUNDS xy xz yz pp pp pp
   -1.3079674063532996      3.2699185158832522     -1.3079674063532996
    0.0000000000000000      2.2654649461742387      0.6539837031766528
    0.0000000000000000     23.7158688168870775      0.0000000000000050
ITEM: ATOMS id type x y z
1      1          0.0000000000000000     0.0000000000000000     0.0000000000000000
2      1          1.3079674063533000     0.7551546799960857     2.3715868816887080
3      1          0.0000000000000006     0.0000000000000010     4.7431737633774160
4      1          1.3079674063533007     0.7551546799960867     7.1147606450661227
5      1          0.0000000000000012     0.0000000000000020     9.4863475267548321
6      1          1.9619511095299509     0.7551546799960877    11.8579344084435387
7      1          0.6539837031766516     0.0000000000000030    14.2295212901322454
8      1          1.9619511095299516     0.7551546799960887    16.6011081718209539
9      1          0.6539837031766522     0.0000000000000040    18.9726950535096641
10     1          1.9619511095299524     0.7551546799960897    21.3442819351983708
ITEM: TIMESTEP energy, energy_weight, force_weight, nsims
18       -20138.4447755019173201    1    1   116
ITEM: NUMBER OF ATOMS
10        
ITEM: BOX BOUNDS xy xz yz pp pp pp
   -1.3079674063532996      3.4007152565185814     -1.3079674063532996
    0.0000000000000000      2.2654649461742395      0.7847804438119819
    0.0000000000000000     23.7158688168870775      0.0000000000000058
ITEM: ATOMS id type x y z
1      1          0.0000000000000000     0.0000000000000000     0.0000000000000000
2      1          1.3079674063532998     0.7551546799960857     2.3715868816887080
3      1          0.0000000000000004     0.0000000000000012     4.7431737633774160
4      1          1.3079674063533004     0.7551546799960869     7.1147606450661227
5      1          0.0000000000000008     0.0000000000000023     9.4863475267548321
6      1          2.0927478501652805     0.7551546799960880    11.8579344084435387
7      1          0.7847804438119811     0.0000000000000035    14.2295212901322454
8      1          2.0927478501652810     0.7551546799960892    16.6011081718209539
9      1          0.7847804438119815     0.0000000000000046    18.9726950535096641
10     1          2.0927478501652814     0.7551546799960903    21.3442819351983708
ITEM: TIMESTEP energy, energy_weight, force_weight, nsims
19       -20138.4224545378965558    1    1   116
ITEM: NUMBER OF ATOMS
10        
ITEM: BOX BOUNDS xy xz yz pp pp pp
   -1.3079674063532996      3.5315119971539115     -1.3079674063532996
    0.0000000000000000      2.2654649461742355      0.9155771844473122
    0.0000000000000000     23.7158688168870775      0.0000000000000018
ITEM: ATOMS id type x y z
1      1          0.0000000000000000     0.0000000000000000     0.0000000000000000
2      1          1.3079674063533000     0.7551546799960853     2.3715868816887080
3      1          0.0000000000000004     0.0000000000000004     4.7431737633774160
4      1          1.3079674063533007     0.7551546799960857     7.1147606450661227
5      1          0.0000000000000009     0.0000000000000007     9.4863475267548321
6      1          2.2235445908006106     0.7551546799960860    11.8579344084435387
7      1          0.9155771844473113     0.0000000000000011    14.2295212901322454
8      1          2.2235445908006111     0.7551546799960863    16.6011081718209539
9      1          0.9155771844473117     0.0000000000000014    18.9726950535096641
10     1          2.2235445908006120     0.7551546799960868    21.3442819351983708
ITEM: TIMESTEP energy, energy_weight, force_weight, nsims
20       -20138.4049223714246182    1    1   116
ITEM: NUMBER OF ATOMS
10        
ITEM: BOX BOUNDS xy xz yz pp pp pp
   -1.3079674063532996      3.6623087377892407     -1.3079674063532996
    0.0000000000000000      2.2654649461742351      1.0463739250826412
    0.0000000000000000     23.7158688168870846      0.0000000000000011
ITEM: ATOMS id type x y z
1      1          0.0000000000000000     0.0000000000000000     0.0000000000000000
2      1          1.3079674063533000     0.7551546799960852     2.3715868816887085
3      1          0.0000000000000003     0.0000000000000002     4.7431737633774169
4      1          1.3079674063533002     0.7551546799960854     7.1147606450661254
5      1          0.0000000000000006     0.0000000000000005     9.4863475267548338
6      1          2.3543413314359403     0.7551546799960857    11.8579344084435423
7      1          1.0463739250826405     0.0000000000000007    14.2295212901322508
8      1          2.3543413314359403     0.7551546799960859    16.6011081718209574
9      1          1.0463739250826409     0.0000000000000009    18.9726950535096677
10     1          2.3543413314359412     0.7551546799960861    21.3442819351983779
ITEM: TIMESTEP energy, energy_weight, force_weight, nsims
21       -20138.5591580613290716    1    1   116
ITEM: NUMBER OF ATOMS
10        
ITEM: BOX BOUNDS xy xz yz pp pp pp
   -1.3079674063532996      2.6159348127066009     -1.3079674063532996
    0.0000000000000000      2.2654649461742364      0.0000000000000015
    0.0000000000000000     23.7158688168870775      0.0000000000000025
ITEM: ATOMS id type x y z
1      1          0.0000000000000000     0.0000000000000000     0.0000000000000000
2      1          1.3079674063533000     0.7551546799960853     2.3715868816887080
3      1          0.0000000000000003     0.0000000000000005     4.7431737633774160
4      1          1.3079674063533002     0.7551546799960859     7.1147606450661227
5      1          0.0000000000000006     0.0000000000000010     9.4863475267548321
6      1          1.3079674063533004     0.7551546799960863    11.8579344084435387
7      1          0.0000000000000009     0.0000000000000015    14.2295212901322454
8      1          1.3079674063533009     0.7551546799960869    16.6011081718209539
9      1          0.0000000000000012     0.0000000000000020    18.9726950535096641
10     1          1.3079674063533011     0.7551546799960873    21.3442819351983708
ITEM: TIMESTEP energy, energy_weight, force_weight, nsims
22       -20138.4503194157077814    1    1   116
ITEM: NUMBER OF ATOMS
10        
ITEM: BOX BOUNDS xy xz yz pp pp pp
   -1.3079674063532996      2.6159348127066009     -1.3079674063532996
   -2.0389197595242168      2.2654649461742338      0.0000000000000015
    0.0000000000000000     23.7158688168870810     -2.0389197595242168
ITEM: ATOMS id type x y z
1      1          0.0000000000000000     0.0000000000000000     0.0000000000000000
2      1          1.3079674063533000     0.7551545491993444     2.3715868816887080
3      1          0.0000000000000003    -0.0000002615934813     4.7431737633774160
4      1          1.3079674063533002     0.7551542876058632     7.1147606450661245
5      1          0.0000000000000007    -0.0000005231869626     9.4863475267548321
6      1          1.3079674063533004    -1.2837644255444285    11.8579344084435405
7      1          0.0000000000000008    -2.0389192363372541    14.2295212901322490
8      1          1.3079674063533009    -1.2837646871379096    16.6011081718209574
9      1          0.0000000000000011    -2.0389194979307357    18.9726950535096641
10     1          1.3079674063533011    -1.2837649487313911    21.3442819351983744
ITEM: TIMESTEP energy, energy_weight, force_weight, nsims
23       -20138.3895412658202986    1    1   116
ITEM: NUMBER OF ATOMS
10        
ITEM: BOX BOUNDS xy xz yz pp pp pp
   -1.3079674063532996      2.6159348127066009     -1.3079674063532996
   -2.2654649461742307      2.2654649461742338      0.0000000000000015
    0.0000000000000000     23.7158688168870810     -2.2654649461742307
ITEM: ATOMS id type x y z
1      1          0.0000000000000000     0.0000000000000000     0.0000000000000000
2      1          1.3079674063533002     0.7551546799960853     2.3715868816887080
3      1          0.0000000000000003     0.0000000000000006     4.7431737633774160
4      1          1.3079674063533002     0.7551546799960861     7.1147606450661245
5      1          0.0000000000000006     0.0000000000000012     9.4863475267548321
6      1          1.3079674063533004    -1.5103102661781471    11.8579344084435405
7      1          0.0000000000000008    -2.2654649461742320    14.2295212901322490
8      1          1.3079674063533007    -1.5103102661781465    16.6011081718209574
9      1          0.0000000000000011    -2.2654649461742316    18.9726950535096641
10     1          1.3079674063533011    -1.5103102661781460    21.3442819351983744
ITEM: TIMESTEP energy, energy_weight, force_weight, nsims
24       -20138.3166664258387755    1    1   116
ITEM: NUMBER OF ATOMS
10        
ITEM: BOX BOUNDS xy xz yz pp pp pp
   -1.3079674063532996      2.6159348127066009     -1.3079674063532996
   -2.4920127487590604      2.2654649461742338      0.0000000000000015
    0.0000000000000000     23.7158688168870810     -2.4920127487590604
ITEM: ATOMS id type x y z
1      1          0.0000000000000000     0.0000000000000000     0.0000000000000000
2      1          1.3079674063533002     0.7551545491993448     2.3715868816887080
3      1          0.0000000000000003    -0.0000002615934807     4.7431737633774160
4      1          1.3079674063533007     0.7551542876058641     7.1147606450661245
5      1          0.0000000000000007    -0.0000005231869614     9.4863475267548321
6      1          1.3079674063533004    -1.7368574147792737    11.8579344084435405
7      1          0.0000000000000008    -2.4920122255720991    14.2295212901322490
8      1          1.3079674063533009    -1.7368576763727541    16.6011081718209574
9      1          0.0000000000000011    -2.4920124871655798    18.9726950535096641
10     1          1.3079674063533009    -1.7368579379662350    21.3442819351983744
ITEM: TIMESTEP energy, energy_weight, force_weight, nsims
25       -20138.2490240652186912    1    1   116
ITEM: NUMBER OF ATOMS
10        