ITEM: TIMESTEP energy, energy_weight, force_weight, nsims
1        -4023.7230691922959522    1    1   60
ITEM: NUMBER OF ATOMS
2         
ITEM: BOX BOUNDS xy xz yz pp pp pp
    0.0000000000000000      2.5589953407142003      0.0000000000000002
    0.0000000000000000      2.5589953407141999      0.0000000000000002
    0.0000000000000000      2.5589953407141999      0.0000000000000002
ITEM: ATOMS id type x y z
1      1          0.0000000000000000     0.0000000000000000     0.0000000000000000
2      1          1.2794976703570999     1.2794976703570999     1.2794976703570999
ITEM: TIMESTEP energy, energy_weight, force_weight, nsims
2        -4027.5228267786478682    1    1   60
ITEM: NUMBER OF ATOMS
2         
ITEM: BOX BOUNDS xy xz yz pp pp pp
    0.0000000000000000      3.0343023457660001      0.0000000000000002
    0.0000000000000000      3.0343023457659997      0.0000000000000002
    0.0000000000000000      3.0343023457659997      0.0000000000000002
ITEM: ATOMS id type x y z
1      1          0.0000000000000000     0.0000000000000000     0.0000000000000000
2      1          1.5171511728829998     1.5171511728829998     1.5171511728829998
ITEM: TIMESTEP energy, energy_weight, force_weight, nsims
3        -4027.5226997014274275    1    1   60
ITEM: NUMBER OF ATOMS
2         
ITEM: BOX BOUNDS xy xz yz pp pp pp
    0.0000000000000000      3.0826162285997003      0.0000000000000002
    0.0000000000000000      3.0826162285996999      0.0000000000000002
    0.0000000000000000      3.0826162285996999      0.0000000000000002
ITEM: ATOMS id type x y z
1      1          0.0000000000000000     0.0000000000000000     0.0000000000000000
2      1          1.5413081142998499     1.5413081142998499     1.5413081142998499
ITEM: TIMESTEP energy, energy_weight, force_weight, nsims
4        -4027.4926475715965353    1    1   60
ITEM: NUMBER OF ATOMS
2         
ITEM: BOX BOUNDS xy xz yz pp pp pp
    0.0000000000000000      3.1301363455599001      0.0000000000000002
    0.0000000000000000      3.1301363455598996      0.0000000000000002
    0.0000000000000000      3.1301363455598996      0.0000000000000002
ITEM: ATOMS id type x y z
1      1          0.0000000000000000     0.0000000000000000     0.0000000000000000
2      1          1.5650681727799498     1.5650681727799498     1.5650681727799498
ITEM: TIMESTEP energy, energy_weight, force_weight, nsims
5        -4027.4394975923873972    1    1   60
ITEM: NUMBER OF ATOMS
2         
ITEM: BOX BOUNDS xy xz yz pp pp pp
    0.0000000000000000      3.1770214498213005      0.0000000000000002
    0.0000000000000000      3.1770214498213001      0.0000000000000002
    0.0000000000000000      3.1770214498213001      0.0000000000000002
ITEM: ATOMS id type x y z
1      1          0.0000000000000000     0.0000000000000000     0.0000000000000000
2      1          1.5885107249106500     1.5885107249106500     1.5885107249106500
ITEM: TIMESTEP energy, energy_weight, force_weight, nsims
6        -4027.3688923189010893    1    1   60
ITEM: NUMBER OF ATOMS
2         
ITEM: BOX BOUNDS xy xz yz pp pp pp
    0.0000000000000000      3.2231657059341003      0.0000000000000002
    0.0000000000000000      3.2231657059340999      0.0000000000000002
    0.0000000000000000      3.2231657059340999      0.0000000000000002
ITEM: ATOMS id type x y z
1      1          0.0000000000000000     0.0000000000000000     0.0000000000000000
2      1          1.6115828529670500     1.6115828529670500     1.6115828529670500
ITEM: TIMESTEP energy, energy_weight, force_weight, nsims
7        -4027.2854730629192090    1    1   60
ITEM: NUMBER OF ATOMS
2         
ITEM: BOX BOUNDS xy xz yz pp pp pp
    0.0000000000000000      3.2686749493481000      0.0000000000000002
    0.0000000000000000      3.2686749493480995      0.0000000000000002
    0.0000000000000000      3.2686749493480995      0.0000000000000002
ITEM: ATOMS id type x y z
1      1          0.0000000000000000     0.0000000000000000     0.0000000000000000
2      1          1.6343374746740498     1.6343374746740498     1.6343374746740498
ITEM: TIMESTEP energy, energy_weight, force_weight, nsims
8        -4027.1929369007775676    1    1   60
ITEM: NUMBER OF ATOMS
2         
ITEM: BOX BOUNDS xy xz yz pp pp pp
    0.0000000000000000      3.3135491800633003      0.0000000000000002
    0.0000000000000000      3.3135491800632999      0.0000000000000002
    0.0000000000000000      3.3135491800632999      0.0000000000000002
ITEM: ATOMS id type x y z
1      1          0.0000000000000000     0.0000000000000000     0.0000000000000000
2      1          1.6567745900316500     1.6567745900316500     1.6567745900316500
ITEM: TIMESTEP energy, energy_weight, force_weight, nsims
9        -4027.0942476977425031    1    1   60
ITEM: NUMBER OF ATOMS
2         
ITEM: BOX BOUNDS xy xz yz pp pp pp
    0.0000000000000000      3.3578413158045999      0.0000000000000002
    0.0000000000000000      3.3578413158045994      0.0000000000000002
    0.0000000000000000      3.3578413158045994      0.0000000000000002
ITEM: ATOMS id type x y z
1      1          0.0000000000000000     0.0000000000000000     0.0000000000000000
2      1          1.6789206579022997     1.6789206579022997     1.6789206579022997
ITEM: TIMESTEP energy, energy_weight, force_weight, nsims
10       -4026.9917561102688524    1    1   60
ITEM: NUMBER OF ATOMS
2         
ITEM: BOX BOUNDS xy xz yz pp pp pp
    0.0000000000000000      3.4014984388471001      0.0000000000000002
    0.0000000000000000      3.4014984388470997      0.0000000000000002
    0.0000000000000000      3.4014984388470997      0.0000000000000002
ITEM: ATOMS id type x y z
1      1          0.0000000000000000     0.0000000000000000     0.0000000000000000
2      1          1.7007492194235498     1.7007492194235498     1.7007492194235498
ITEM: TIMESTEP energy, energy_weight, force_weight, nsims
11       -4026.8873877528048979    1    1   60
ITEM: NUMBER OF ATOMS
2         
ITEM: BOX BOUNDS xy xz yz pp pp pp
    0.0000000000000000      3.4446793023655000      0.0000000000000002
    0.0000000000000000      3.4446793023654996      0.0000000000000002
    0.0000000000000000      3.4446793023654996      0.0000000000000002
ITEM: ATOMS id type x y z
1      1          0.0000000000000000     0.0000000000000000     0.0000000000000000
2      1          1.7223396511827498     1.7223396511827498     1.7223396511827498
ITEM: TIMESTEP energy, energy_weight, force_weight, nsims
12       -4024.8073445507807264    1    1   60
ITEM: NUMBER OF ATOMS
2         
ITEM: BOX BOUNDS xy xz yz pp pp pp
    0.0000000000000000      2.6160406481564000      0.0000000000000002
    0.0000000000000000      2.6160406481563996      0.0000000000000002
    0.0000000000000000      2.6160406481563996      0.0000000000000002
ITEM: ATOMS id type x y z
1      1          0.0000000000000000     0.0000000000000000     0.0000000000000000
2      1          1.3080203240781998     1.3080203240781998     1.3080203240781998
ITEM: TIMESTEP energy, energy_weight, force_weight, nsims
13       -4026.7827410227569089    1    1   60
ITEM: NUMBER OF ATOMS
2         
ITEM: BOX BOUNDS xy xz yz pp pp pp
    0.0000000000000000      3.4872780709100000      0.0000000000000002
    0.0000000000000000      3.4872780709099995      0.0000000000000002
    0.0000000000000000      3.4872780709099995      0.0000000000000002
ITEM: ATOMS id type x y z
1      1          0.0000000000000000     0.0000000000000000     0.0000000000000000
2      1          1.7436390354549998     1.7436390354549998     1.7436390354549998
ITEM: TIMESTEP energy, energy_weight, force_weight, nsims
14       -4025.6276114065126421    1    1   60
ITEM: NUMBER OF ATOMS
2         
ITEM: BOX BOUNDS xy xz yz pp pp pp
    0.0000000000000000      2.6719217656508003      0.0000000000000002
    0.0000000000000000      2.6719217656507999      0.0000000000000002
    0.0000000000000000      2.6719217656507999      0.0000000000000002
ITEM: ATOMS id type x y z
1      1          0.0000000000000000     0.0000000000000000     0.0000000000000000
2      1          1.3359608828253999     1.3359608828253999     1.3359608828253999
ITEM: TIMESTEP energy, energy_weight, force_weight, nsims
15       -4026.2422946678416338    1    1   60
ITEM: NUMBER OF ATOMS
2         
ITEM: BOX BOUNDS xy xz yz pp pp pp
    0.0000000000000000      2.7266386931974003      0.0000000000000002
    0.0000000000000000      2.7266386931973998      0.0000000000000002
    0.0000000000000000      2.7266386931973998      0.0000000000000002
ITEM: ATOMS id type x y z
1      1          0.0000000000000000     0.0000000000000000     0.0000000000000000
2      1          1.3633193465986999     1.3633193465986999     1.3633193465986999
ITEM: TIMESTEP energy, energy_weight, force_weight, nsims
16       -4026.6958501368571888    1    1   60
ITEM: NUMBER OF ATOMS
2         
ITEM: BOX BOUNDS xy xz yz pp pp pp
    0.0000000000000000      2.7802972662459999      0.0000000000000002
    0.0000000000000000      2.7802972662459995      0.0000000000000002
    0.0000000000000000      2.7802972662459995      0.0000000000000002
ITEM: ATOMS id type x y z
1      1          0.0000000000000000     0.0000000000000000     0.0000000000000000
2      1          1.3901486331229997     1.3901486331229997     1.3901486331229997
ITEM: TIMESTEP energy, energy_weight, force_weight, nsims
17       -4027.0226956037276977    1    1   60
ITEM: NUMBER OF ATOMS
2         
ITEM: BOX BOUNDS xy xz yz pp pp pp
    0.0000000000000000      2.8328974847966002      0.0000000000000002
    0.0000000000000000      2.8328974847965998      0.0000000000000002
    0.0000000000000000      2.8328974847965998      0.0000000000000002
ITEM: ATOMS id type x y z
1      1          0.0000000000000000     0.0000000000000000     0.0000000000000000
2      1          1.4164487423982999     1.4164487423982999     1.4164487423982999
ITEM: TIMESTEP energy, energy_weight, force_weight, nsims
18       -4027.2497107576668895    1    1   60
ITEM: NUMBER OF ATOMS
2         
ITEM: BOX BOUNDS xy xz yz pp pp pp
    0.0000000000000000      2.8845981020239004      0.0000000000000002
    0.0000000000000000      2.8845981020239000      0.0000000000000002
    0.0000000000000000      2.8845981020239000      0.0000000000000002
ITEM: ATOMS id type x y z
1      1          0.0000000000000000     0.0000000000000000     0.0000000000000000
2      1          1.4422990510119500     1.4422990510119500     1.4422990510119500
ITEM: TIMESTEP energy, energy_weight, force_weight, nsims
19       -4027.3980878339812080    1    1   60
ITEM: NUMBER OF ATOMS
2         
ITEM: BOX BOUNDS xy xz yz pp pp pp
    0.0000000000000000      2.9353462002030000      0.0000000000000002
    0.0000000000000000      2.9353462002029995      0.0000000000000002
    0.0000000000000000      2.9353462002029995      0.0000000000000002
ITEM: ATOMS id type x y z
1      1          0.0000000000000000     0.0000000000000000     0.0000000000000000
2      1          1.4676731001014998     1.4676731001014998     1.4676731001014998
ITEM: TIMESTEP energy, energy_weight, force_weight, nsims
20       -4027.4847230688151285    1    1   60
ITEM: NUMBER OF ATOMS
2         
ITEM: BOX BOUNDS xy xz yz pp pp pp
    0.0000000000000000      2.9852476147837002      0.0000000000000002
    0.0000000000000000      2.9852476147836997      0.0000000000000002
    0.0000000000000000      2.9852476147836997      0.0000000000000002
ITEM: ATOMS id type x y z
1      1          0.0000000000000000     0.0000000000000000     0.0000000000000000
2      1          1.4926238073918499     1.4926238073918499     1.4926238073918499
ITEM: TIMESTEP energy, energy_weight, force_weight, nsims
21       -8047.2974172201729743    1    1   60
ITEM: NUMBER OF ATOMS
4         
ITEM: BOX BOUNDS xy xz yz pp pp pp
    0.0000000000000000      3.2054911858175004      0.0000000000000002
    0.0000000000000000      3.2054911858174999      0.0000000000000002
    0.0000000000000000      3.2054911858174999      0.0000000000000002
ITEM: ATOMS id type x y z
1      1          0.0000000000000000     0.0000000000000000     0.0000000000000000
2      1          0.0000000000000002     1.6027455929087500     1.6027455929087500
3      1          1.6027455929087500     0.0000000000000001     1.6027455929087500
4      1          1.6027455929087500     1.6027455929087500     0.0000000000000000
ITEM: TIMESTEP energy, energy_weight, force_weight, nsims
22       -8055.3045932572322272    1    1   60
ITEM: NUMBER OF ATOMS
4         
ITEM: BOX BOUNDS xy xz yz pp pp pp
    0.0000000000000000      3.8009743441172001      0.0000000000000002
    0.0000000000000000      3.8009743441172001      0.0000000000000002
    0.0000000000000000      3.8009743441171997      0.0000000000000002
ITEM: ATOMS id type x y z
1      1          0.0000000000000000     0.0000000000000000     0.0000000000000000
2      1          0.0000000000000002     1.9004871720586001     1.9004871720585998
3      1          1.9004871720586001     0.0000000000000001     1.9004871720585998
4      1          1.9004871720586001     1.9004871720585998     0.0000000000000000
ITEM: TIMESTEP energy, energy_weight, force_weight, nsims
23       -8055.3117806032923909    1    1   60
ITEM: NUMBER OF ATOMS
4         
ITEM: BOX BOUNDS xy xz yz pp pp pp
    0.0000000000000000      3.8614593036779001      0.0000000000000002
    0.0000000000000000      3.8614593036779001      0.0000000000000002
    0.0000000000000000      3.8614593036778997      0.0000000000000002
ITEM: ATOMS id type x y z
1      1          0.0000000000000000     0.0000000000000000     0.0000000000000000
2      1          0.0000000000000002     1.9307296518389501     1.9307296518389498
3      1          1.9307296518389501     0.0000000000000001     1.9307296518389498
4      1          1.9307296518389501     1.9307296518389498     0.0000000000000000
ITEM: TIMESTEP energy, energy_weight, force_weight, nsims
24       -8055.2564007862274593    1    1   60
ITEM: NUMBER OF ATOMS
4         
ITEM: BOX BOUNDS xy xz yz pp pp pp
    0.0000000000000000      3.9209917441904003      0.0000000000000002
    0.0000000000000000      3.9209917441904003      0.0000000000000002
    0.0000000000000000      3.9209917441903999      0.0000000000000002
ITEM: ATOMS id type x y z
1      1          0.0000000000000000     0.0000000000000000     0.0000000000000000
2      1          0.0000000000000002     1.9604958720952002     1.9604958720951999
3      1          1.9604958720952002     0.0000000000000001     1.9604958720951999
4      1          1.9604958720952002     1.9604958720951999     0.0000000000000000
ITEM: TIMESTEP energy, energy_weight, force_weight, nsims
25       -8055.1525660442412118    1    1   60
ITEM: NUMBER OF ATOMS
4         
ITEM: BOX BOUNDS xy xz yz pp pp pp
    0.0000000000000000      3.9796775011045002      0.0000000000000002
    0.0000000000000000      3.9796775011045002      0.0000000000000002
    0.0000000000000000      3.9796775011044998      0.0000000000000002
ITEM: ATOMS id type x y z
1      1          0.0000000000000000     0.0000000000000000     0.0000000000000000
2      1          0.0000000000000002     1.9898387505522501     1.9898387505522499
3      1          1.9898387505522501     0.0000000000000001     1.9898387505522499
4      1          1.9898387505522501     1.9898387505522499     0.0000000000000000
ITEM: TIMESTEP energy, energy_weight, force_weight, nsims
26       -8055.0113884230586336    1    1   60
ITEM: NUMBER OF ATOMS
4         
ITEM: BOX BOUNDS xy xz yz pp pp pp
    0.0000000000000000      4.0375165744202004      0.0000000000000002
    0.0000000000000000      4.0375165744201995      0.0000000000000002
    0.0000000000000000      4.0375165744201995      0.0000000000000002
ITEM: ATOMS id type x y z
1      1          0.0000000000000000     0.0000000000000000     0.0000000000000000
2      1          0.0000000000000002     2.0187582872100998     2.0187582872100998
3      1          2.0187582872100998     0.0000000000000001     2.0187582872100998
4      1          2.0187582872100998     2.0187582872100998     0.0000000000000000
ITEM: TIMESTEP energy, energy_weight, force_weight, nsims
27       -8054.8416396522789000    1    1   60
ITEM: NUMBER OF ATOMS
4         
ITEM: BOX BOUNDS xy xz yz pp pp pp
    0.0000000000000000      4.0945089641375008      0.0000000000000003
    0.0000000000000000      4.0945089641374999      0.0000000000000003
    0.0000000000000000      4.0945089641374999      0.0000000000000003
ITEM: ATOMS id type x y z
1      1          0.0000000000000000     0.0000000000000000     0.0000000000000000
2      1          0.0000000000000003     2.0472544820687499     2.0472544820687499
3      1          2.0472544820687499     0.0000000000000001     2.0472544820687499
4      1          2.0472544820687499     2.0472544820687499     0.0000000000000000
ITEM: TIMESTEP energy, energy_weight, force_weight, nsims
28       -8054.6503161900191117    1    1   60
ITEM: NUMBER OF ATOMS
4         
ITEM: BOX BOUNDS xy xz yz pp pp pp
    0.0000000000000000      4.1507075879813007      0.0000000000000003
    0.0000000000000000      4.1507075879812998      0.0000000000000003
    0.0000000000000000      4.1507075879812998      0.0000000000000003
ITEM: ATOMS id type x y z
1      1          0.0000000000000000     0.0000000000000000     0.0000000000000000
2      1          0.0000000000000003     2.0753537939906499     2.0753537939906499
3      1          2.0753537939906499     0.0000000000000001     2.0753537939906499
4      1          2.0753537939906499     2.0753537939906499     0.0000000000000000
ITEM: TIMESTEP energy, energy_weight, force_weight, nsims
29       -8054.4431804575815477    1    1   60
ITEM: NUMBER OF ATOMS
4         
ITEM: BOX BOUNDS xy xz yz pp pp pp
    0.0000000000000000      4.2062182814014006      0.0000000000000003
    0.0000000000000000      4.2062182814013998      0.0000000000000003
    0.0000000000000000      4.2062182814013998      0.0000000000000003
ITEM: ATOMS id type x y z
1      1          0.0000000000000000     0.0000000000000000     0.0000000000000000
2      1          0.0000000000000003     2.1031091407006999     2.1031091407006999
3      1          2.1031091407006999     0.0000000000000001     2.1031091407006999
4      1          2.1031091407006999     2.1031091407006999     0.0000000000000000
ITEM: TIMESTEP energy, energy_weight, force_weight, nsims
30       -8054.2251234313052919    1    1   60
ITEM: NUMBER OF ATOMS
4         
ITEM: BOX BOUNDS xy xz yz pp pp pp
    0.0000000000000000      4.2609352089480002      0.0000000000000003
    0.0000000000000000      4.2609352089479993      0.0000000000000003
    0.0000000000000000      4.2609352089479993      0.0000000000000003
ITEM: ATOMS id type x y z
1      1          0.0000000000000000     0.0000000000000000     0.0000000000000000
2      1          0.0000000000000003     2.1304676044739996     2.1304676044739996
3      1          2.1304676044739996     0.0000000000000001     2.1304676044739996
4      1          2.1304676044739996     2.1304676044739996     0.0000000000000000
ITEM: TIMESTEP energy, energy_weight, force_weight, nsims
31       -8054.0003885923624694    1    1   60
ITEM: NUMBER OF ATOMS
4         
ITEM: BOX BOUNDS xy xz yz pp pp pp
    0.0000000000000000      4.3150171237958004      0.0000000000000003
    0.0000000000000000      4.3150171237957995      0.0000000000000003
    0.0000000000000000      4.3150171237957995      0.0000000000000003
ITEM: ATOMS id type x y z
1      1          0.0000000000000000     0.0000000000000000     0.0000000000000000
2      1          0.0000000000000003     2.1575085618978997     2.1575085618978997
3      1          2.1575085618978997     0.0000000000000001     2.1575085618978997
4      1          2.1575085618978997     2.1575085618978997     0.0000000000000000
ITEM: TIMESTEP energy, energy_weight, force_weight, nsims
32       -8049.5684153060956305    1    1   60
ITEM: NUMBER OF ATOMS
4         
ITEM: BOX BOUNDS xy xz yz pp pp pp
    0.0000000000000000      3.2770359498823005      0.0000000000000002
    0.0000000000000000      3.2770359498823001      0.0000000000000002
    0.0000000000000000      3.2770359498823001      0.0000000000000002
ITEM: ATOMS id type x y z
1      1          0.0000000000000000     0.0000000000000000     0.0000000000000000
2      1          0.0000000000000002     1.6385179749411500     1.6385179749411500
3      1          1.6385179749411500     0.0000000000000001     1.6385179749411500
4      1          1.6385179749411500     1.6385179749411500     0.0000000000000000
ITEM: TIMESTEP energy, energy_weight, force_weight, nsims
33       -8053.7726407715817913    1    1   60
ITEM: NUMBER OF ATOMS
4         
ITEM: BOX BOUNDS xy xz yz pp pp pp
    0.0000000000000000      4.3683581904950008      0.0000000000000003
    0.0000000000000000      4.3683581904950000      0.0000000000000003
    0.0000000000000000      4.3683581904950000      0.0000000000000003
ITEM: ATOMS id type x y z
1      1          0.0000000000000000     0.0000000000000000     0.0000000000000000
2      1          0.0000000000000003     2.1841790952475000     2.1841790952475000
3      1          2.1841790952475000     0.0000000000000001     2.1841790952475000
4      1          2.1841790952475000     2.1841790952475000     0.0000000000000000
ITEM: TIMESTEP energy, energy_weight, force_weight, nsims
34       -8051.2874713106948548    1    1   60
ITEM: NUMBER OF ATOMS
4         
ITEM: BOX BOUNDS xy xz yz pp pp pp
    0.0000000000000000      3.3469931822001002      0.0000000000000002
    0.0000000000000000      3.3469931822000998      0.0000000000000002
    0.0000000000000000      3.3469931822000998      0.0000000000000002
ITEM: ATOMS id type x y z
1      1          0.0000000000000000     0.0000000000000000     0.0000000000000000
2      1          0.0000000000000002     1.6734965911000499     1.6734965911000499
3      1          1.6734965911000499     0.0000000000000001     1.6734965911000499
4      1          1.6734965911000499     1.6734965911000499     0.0000000000000000
ITEM: TIMESTEP energy, energy_weight, force_weight, nsims
35       -8052.5768595064291731    1    1   60
ITEM: NUMBER OF ATOMS
4         
ITEM: BOX BOUNDS xy xz yz pp pp pp
    0.0000000000000000      3.4155216359456002      0.0000000000000002
    0.0000000000000000      3.4155216359455998      0.0000000000000002
    0.0000000000000000      3.4155216359455998      0.0000000000000002
ITEM: ATOMS id type x y z
1      1          0.0000000000000000     0.0000000000000000     0.0000000000000000
2      1          0.0000000000000002     1.7077608179727999     1.7077608179727999
3      1          1.7077608179727999     0.0000000000000001     1.7077608179727999
4      1          1.7077608179727999     1.7077608179727999     0.0000000000000000
ITEM: TIMESTEP energy, energy_weight, force_weight, nsims
36       -8053.5310009888489731    1    1   60
ITEM: NUMBER OF ATOMS
4         
ITEM: BOX BOUNDS xy xz yz pp pp pp
    0.0000000000000000      3.4827271465686005      0.0000000000000002
    0.0000000000000000      3.4827271465686001      0.0000000000000002
    0.0000000000000000      3.4827271465686001      0.0000000000000002
ITEM: ATOMS id type x y z
1      1          0.0000000000000000     0.0000000000000000     0.0000000000000000
2      1          0.0000000000000002     1.7413635732843000     1.7413635732843000
3      1          1.7413635732843000     0.0000000000000001     1.7413635732843000
4      1          1.7413635732843000     1.7413635732843000     0.0000000000000000
ITEM: TIMESTEP energy, energy_weight, force_weight, nsims
37       -8054.2224758985184963    1    1   60
ITEM: NUMBER OF ATOMS
4         
ITEM: BOX BOUNDS xy xz yz pp pp pp
    0.0000000000000000      3.5486626317940004      0.0000000000000002
    0.0000000000000000      3.5486626317940000      0.0000000000000002
    0.0000000000000000      3.5486626317940000      0.0000000000000002
ITEM: ATOMS id type x y z
1      1          0.0000000000000000     0.0000000000000000     0.0000000000000000
2      1          0.0000000000000002     1.7743313158970000     1.7743313158970000
3      1          1.7743313158970000     0.0000000000000001     1.7743313158970000
4      1          1.7743313158970000     1.7743313158970000     0.0000000000000000
ITEM: TIMESTEP energy, energy_weight, force_weight, nsims
38       -8054.7067850071571229    1    1   60
ITEM: NUMBER OF ATOMS
4         
ITEM: BOX BOUNDS xy xz yz pp pp pp
    0.0000000000000000      3.6133810093466998      0.0000000000000002
    0.0000000000000000      3.6133810093466994      0.0000000000000002
    0.0000000000000000      3.6133810093466994      0.0000000000000002
ITEM: ATOMS id type x y z
1      1          0.0000000000000000     0.0000000000000000     0.0000000000000000
2      1          0.0000000000000002     1.8066905046733497     1.8066905046733497
3      1          1.8066905046733497     0.0000000000000001     1.8066905046733497
4      1          1.8066905046733497     1.8066905046733497     0.0000000000000000
ITEM: TIMESTEP energy, energy_weight, force_weight, nsims
39       -8055.0269268105348601    1    1   60
ITEM: NUMBER OF ATOMS
4         
ITEM: BOX BOUNDS xy xz yz pp pp pp
    0.0000000000000000      3.6769881146765004      0.0000000000000002
    0.0000000000000000      3.6769881146765004      0.0000000000000002
    0.0000000000000000      3.6769881146765000      0.0000000000000002
ITEM: ATOMS id type x y z
1      1          0.0000000000000000     0.0000000000000000     0.0000000000000000
2      1          0.0000000000000002     1.8384940573382502     1.8384940573382500
3      1          1.8384940573382502     0.0000000000000001     1.8384940573382500
4      1          1.8384940573382502     1.8384940573382500     0.0000000000000000
ITEM: TIMESTEP energy, energy_weight, force_weight, nsims
40       -8055.2170486175400583    1    1   60
ITEM: NUMBER OF ATOMS
4         
ITEM: BOX BOUNDS xy xz yz pp pp pp
    0.0000000000000000      3.7394839477834001      0.0000000000000002
    0.0000000000000000      3.7394839477834001      0.0000000000000002
    0.0000000000000000      3.7394839477833997      0.0000000000000002
ITEM: ATOMS id type x y z
1      1          0.0000000000000000     0.0000000000000000     0.0000000000000000
2      1          0.0000000000000002     1.8697419738917000     1.8697419738916998
3      1          1.8697419738917000     0.0000000000000001     1.8697419738916998
4      1          1.8697419738917000     1.8697419738916998     0.0000000000000000
ITEM: TIMESTEP energy, energy_weight, force_weight, nsims
41       -4023.5417011553677185    1    1   60
ITEM: NUMBER OF ATOMS
2         
ITEM: BOX BOUNDS xy xz yz pp pp pp
   -1.0943120920695497      2.1886241841391003     -1.0943120920695497
    0.0000000000000000      1.8954032590690648      0.0000000000000002
    0.0000000000000000      3.9683805413182540      0.0000000000000004
ITEM: ATOMS id type x y z
1      1          0.0000000000000000     0.0000000000000000     0.0000000000000000
2      1         -0.0000001094312088     1.2636022358928183     1.9841902706591270
ITEM: TIMESTEP energy, energy_weight, force_weight, nsims
42       -4027.7063465567243838    1    1   60
ITEM: NUMBER OF ATOMS
2         
ITEM: BOX BOUNDS xy xz yz pp pp pp
   -1.2975955322728996      2.5951910645458005     -1.2975955322728996
    0.0000000000000000      2.2475003416732773      0.0000000000000003
    0.0000000000000000      4.7055615103684767      0.0000000000000005
ITEM: ATOMS id type x y z
1      1          0.0000000000000000     0.0000000000000000     0.0000000000000000
2      1         -0.0000001297595527     1.4983336360321959     2.3527807551842383
ITEM: TIMESTEP energy, energy_weight, force_weight, nsims
43       -4027.7077600526968126    1    1   60
ITEM: NUMBER OF ATOMS
2         
ITEM: BOX BOUNDS xy xz yz pp pp pp
   -1.3182599038463496      2.6365198076927006     -1.3182599038463496
    0.0000000000000000      2.2832920664570713      0.0000000000000003
    0.0000000000000000      4.7804981675112899      0.0000000000000005
ITEM: ATOMS id type x y z
1      1          0.0000000000000000     0.0000000000000000     0.0000000000000000
2      1         -0.0000001318259899     1.5221947870811161     2.3902490837556449
ITEM: TIMESTEP energy, energy_weight, force_weight, nsims
44       -4027.6762078946535439    1    1   60
ITEM: NUMBER OF ATOMS
2         
ITEM: BOX BOUNDS xy xz yz pp pp pp
   -1.3385803102079494      2.6771606204159002     -1.3385803102079494
    0.0000000000000000      2.3184880262956806      0.0000000000000003
    0.0000000000000000      4.8541874795288038      0.0000000000000005
ITEM: ATOMS id type x y z
1      1          0.0000000000000000     0.0000000000000000     0.0000000000000000
2      1         -0.0000001338580305     1.5456587614800543     2.4270937397644019
ITEM: TIMESTEP energy, energy_weight, force_weight, nsims
45       -4027.6194073705960363    1    1   60
ITEM: NUMBER OF ATOMS
2         
ITEM: BOX BOUNDS xy xz yz pp pp pp
   -1.3586096690825995      2.7172193381652003     -1.3586096690825995
    0.0000000000000000      2.3531798773345183      0.0000000000000003
    0.0000000000000000      4.9268213456710681      0.0000000000000005
ITEM: ATOMS id type x y z
1      1          0.0000000000000000     0.0000000000000000     0.0000000000000000
2      1         -0.0000001358609664     1.5687866633290080     2.4634106728355341
ITEM: TIMESTEP energy, energy_weight, force_weight, nsims
46       -4027.5435677129498799    1    1   60
ITEM: NUMBER OF ATOMS
2         
ITEM: BOX BOUNDS xy xz yz pp pp pp
   -1.3783479804702994      2.7566959609406001     -1.3783479804702994
    0.0000000000000000      2.3873676195735838      0.0000000000000003
    0.0000000000000000      4.9983997659380819      0.0000000000000005
ITEM: ATOMS id type x y z
1      1          0.0000000000000000     0.0000000000000000     0.0000000000000000
2      1         -0.0000001378347976     1.5915784926279763     2.4991998829690409
ITEM: TIMESTEP energy, energy_weight, force_weight, nsims